<?xml version="1.0" encoding="UTF-8"?>

<!-- generated on 2026-06-16T05:06:10.698668+00:00 by Eclipse SUMO GUI 1.26.0
<sumoConfiguration xmlns:xsi="http://www.w3.org/2001/XMLSchema-instance" xsi:noNamespaceSchemaLocation="http://sumo.dlr.de/xsd/sumoConfiguration.xsd">

    <input>
        <net-file value="C:\Users\15102\OneDrive - Imperial College London\Course Materials_Semester 3\CIVE70109_Group Design Project\Sumo File\Final Design\Baseline\Baseline_without_BTJ.net.xml"/>
        <route-files value="C:\Users\15102\OneDrive - Imperial College London\Course Materials_Semester 3\CIVE70109_Group Design Project\Sumo File\Final Design\Baseline\Baseline.rou.xml"/>
        <additional-files value="C:\Users\15102\OneDrive - Imperial College London\Course Materials_Semester 3\CIVE70109_Group Design Project\Sumo File\Final Design\Baseline\Baseline.add.xml"/>
        <junction-taz value="true"/>
    </input>

    <output>
        <emission-output value="C:\Users\15102\OneDrive - Imperial College London\Course Materials_Semester 3\CIVE70109_Group Design Project\Sumo File\Final Design\Baseline\Output/Emissions.xml.gz"/>
        <tripinfo-output value="C:\Users\15102\OneDrive - Imperial College London\Course Materials_Semester 3\CIVE70109_Group Design Project\Sumo File\Final Design\Baseline\Output/Tripinfo.xml"/>
    </output>

    <ssm_device>
        <device.ssm.probability value="1"/>
        <device.ssm.measures value="TTC PET DRAC"/>
        <device.ssm.file value="Output/SSM.xml"/>
    </ssm_device>

</sumoConfiguration>
-->

<tripinfos xmlns:xsi="http://www.w3.org/2001/XMLSchema-instance" xsi:noNamespaceSchemaLocation="http://sumo.dlr.de/xsd/tripinfo_file.xsd">
    <tripinfo id="Trailer_South_Port_0.0" depart="0.00" departLane="1484069398_0" departPos="16.60" departSpeed="0.00" departDelay="0.00" arrival="342.00" arrivalLane="133487534_0" arrivalPos="583.29" arrivalSpeed="13.50" duration="342.00" routeLength="4391.60" waitingTime="0.00" waitingCount="0" stopTime="2.00" timeLoss="17.28" rerouteNo="1" devices="tripinfo_Trailer_South_Port_0.0 routing_Trailer_South_Port_0.0 emissions_Trailer_South_Port_0.0 ssm_Trailer_South_Port_0.0" vType="Trailer" speedFactor="1.06" vaporized="">
        <emissions CO_abs="5590.78" CO2_abs="4603925.88" HC_abs="140.56" PMx_abs="108.26" NOx_abs="29770.69" fuel_abs="1448022.96" electricity_abs="0.00"/>
    </tripinfo>
    <tripinfo id="Truck_South_Port_0.0" depart="5.00" departLane="1484069398_0" departPos="7.20" departSpeed="0.00" departDelay="5.00" arrival="353.00" arrivalLane="133487534_0" arrivalPos="583.29" arrivalSpeed="13.28" duration="348.00" routeLength="4401.00" waitingTime="0.00" waitingCount="0" stopTime="2.00" timeLoss="19.41" rerouteNo="1" devices="tripinfo_Truck_South_Port_0.0 routing_Truck_South_Port_0.0 emissions_Truck_South_Port_0.0 ssm_Truck_South_Port_0.0" vType="Truck" speedFactor="0.97" vaporized="">
        <emissions CO_abs="5881.09" CO2_abs="4825891.79" HC_abs="147.72" PMx_abs="114.10" NOx_abs="31249.61" fuel_abs="1517833.44" electricity_abs="0.00"/>
    </tripinfo>
    <tripinfo id="Car_South_Port_0.0" depart="9.00" departLane="1484069398_0" departPos="5.10" departSpeed="0.00" departDelay="9.00" arrival="360.00" arrivalLane="133487534_0" arrivalPos="583.29" arrivalSpeed="13.18" duration="351.00" routeLength="4403.10" waitingTime="1.00" waitingCount="1" stopTime="2.00" timeLoss="24.62" rerouteNo="1" devices="tripinfo_Car_South_Port_0.0 routing_Car_South_Port_0.0 emissions_Car_South_Port_0.0 ssm_Car_South_Port_0.0" vType="Car" speedFactor="0.96" vaporized="">
        <emissions CO_abs="8007.48" CO2_abs="839761.07" HC_abs="53.65" PMx_abs="10.94" NOx_abs="307.15" fuel_abs="267846.99" electricity_abs="0.00"/>
    </tripinfo>
    <tripinfo id="Bus_South_Port_0.0" depart="13.00" departLane="1484069398_0" departPos="12.10" departSpeed="0.00" departDelay="13.00" arrival="370.00" arrivalLane="133487534_0" arrivalPos="583.29" arrivalSpeed="13.88" duration="357.00" routeLength="4396.10" waitingTime="3.00" waitingCount="2" stopTime="2.00" timeLoss="26.01" rerouteNo="1" devices="tripinfo_Bus_South_Port_0.0 routing_Bus_South_Port_0.0 emissions_Bus_South_Port_0.0 ssm_Bus_South_Port_0.0" vType="Bus" speedFactor="1.00" vaporized="">
        <emissions CO_abs="7403.58" CO2_abs="4499505.52" HC_abs="1703.95" PMx_abs="799.18" NOx_abs="35123.53" fuel_abs="1423960.88" electricity_abs="0.00"/>
    </tripinfo>
    <tripinfo id="Trailer_Port_South_0.0" depart="21.00" departLane="-133487534_0" departPos="16.60" departSpeed="0.00" departDelay="21.00" arrival="376.00" arrivalLane="-1484069398_0" arrivalPos="99.18" arrivalSpeed="13.89" duration="355.00" routeLength="4392.74" waitingTime="1.00" waitingCount="1" stopTime="2.00" timeLoss="22.40" rerouteNo="1" devices="tripinfo_Trailer_Port_South_0.0 routing_Trailer_Port_South_0.0 emissions_Trailer_Port_South_0.0 ssm_Trailer_Port_South_0.0" vType="Trailer" speedFactor="0.93" vaporized="">
        <emissions CO_abs="5836.13" CO2_abs="4761399.77" HC_abs="146.29" PMx_abs="113.87" NOx_abs="30905.61" fuel_abs="1497552.76" electricity_abs="0.00"/>
    </tripinfo>
    <tripinfo id="Truck_Port_South_0.0" depart="39.00" departLane="-133487534_0" departPos="7.20" departSpeed="0.00" departDelay="39.00" arrival="414.00" arrivalLane="-1484069398_0" arrivalPos="99.18" arrivalSpeed="13.39" duration="375.00" routeLength="4402.14" waitingTime="5.00" waitingCount="3" stopTime="2.00" timeLoss="34.97" rerouteNo="1" devices="tripinfo_Truck_Port_South_0.0 routing_Truck_Port_South_0.0 emissions_Truck_Port_South_0.0 ssm_Truck_Port_South_0.0" vType="Truck" speedFactor="0.94" vaporized="">
        <emissions CO_abs="6242.22" CO2_abs="5012685.34" HC_abs="155.85" PMx_abs="122.75" NOx_abs="32741.99" fuel_abs="1576575.75" electricity_abs="0.00"/>
    </tripinfo>
    <tripinfo id="Car_Port_South_0.0" depart="52.00" departLane="-133487534_0" departPos="5.10" departSpeed="0.00" departDelay="52.00" arrival="446.00" arrivalLane="-1484069398_0" arrivalPos="99.18" arrivalSpeed="13.46" duration="394.00" routeLength="4404.24" waitingTime="2.00" waitingCount="1" stopTime="2.00" timeLoss="55.31" rerouteNo="1" devices="tripinfo_Car_Port_South_0.0 routing_Car_Port_South_0.0 emissions_Car_Port_South_0.0 ssm_Car_Port_South_0.0" vType="Car" speedFactor="1.18" vaporized="">
        <emissions CO_abs="12990.40" CO2_abs="931092.67" HC_abs="78.57" PMx_abs="13.04" NOx_abs="348.95" fuel_abs="296979.23" electricity_abs="0.00"/>
    </tripinfo>
    <tripinfo id="Bus_Port_South_0.0" depart="74.00" departLane="-133487534_0" departPos="12.10" departSpeed="0.00" departDelay="74.00" arrival="484.00" arrivalLane="-1484069398_0" arrivalPos="99.18" arrivalSpeed="13.65" duration="410.00" routeLength="4397.24" waitingTime="3.00" waitingCount="2" stopTime="2.00" timeLoss="53.19" rerouteNo="1" devices="tripinfo_Bus_Port_South_0.0 routing_Bus_Port_South_0.0 emissions_Bus_Port_South_0.0 ssm_Bus_Port_South_0.0" vType="Bus" speedFactor="1.00" vaporized="">
        <emissions CO_abs="8547.73" CO2_abs="4811998.99" HC_abs="2013.85" PMx_abs="915.55" NOx_abs="38589.37" fuel_abs="1522785.26" electricity_abs="0.00"/>
    </tripinfo>
    <tripinfo id="Trailer_N1_South_2.0" depart="7.00" departLane="409623412_0" departPos="16.60" departSpeed="0.00" departDelay="7.00" arrival="636.00" arrivalLane="955410873_0" arrivalPos="728.89" arrivalSpeed="13.61" duration="629.00" routeLength="7704.74" waitingTime="0.00" waitingCount="0" stopTime="0.00" timeLoss="29.35" rerouteNo="1" devices="tripinfo_Trailer_N1_South_2.0 routing_Trailer_N1_South_2.0 emissions_Trailer_N1_South_2.0 ssm_Trailer_N1_South_2.0" vType="Trailer" speedFactor="0.92" vaporized="">
        <emissions CO_abs="9981.96" CO2_abs="8135463.32" HC_abs="250.16" PMx_abs="194.85" NOx_abs="52827.41" fuel_abs="2558759.94" electricity_abs="0.00"/>
    </tripinfo>
    <tripinfo id="Truck_N1_South_2.0" depart="17.00" departLane="409623412_0" departPos="7.20" departSpeed="0.00" departDelay="17.00" arrival="641.00" arrivalLane="955410873_0" arrivalPos="728.89" arrivalSpeed="13.56" duration="624.00" routeLength="7714.14" waitingTime="0.00" waitingCount="0" stopTime="0.00" timeLoss="41.40" rerouteNo="1" devices="tripinfo_Truck_N1_South_2.0 routing_Truck_N1_South_2.0 emissions_Truck_N1_South_2.0 ssm_Truck_N1_South_2.0" vType="Truck" speedFactor="1.08" vaporized="">
        <emissions CO_abs="10080.51" CO2_abs="8287449.24" HC_abs="253.14" PMx_abs="196.07" NOx_abs="53631.79" fuel_abs="2606575.91" electricity_abs="0.00"/>
    </tripinfo>
    <tripinfo id="Car_N1_South_2.0" depart="24.00" departLane="409623412_0" departPos="5.10" departSpeed="0.00" departDelay="24.00" arrival="648.00" arrivalLane="955410873_0" arrivalPos="728.89" arrivalSpeed="12.95" duration="624.00" routeLength="7716.24" waitingTime="0.00" waitingCount="0" stopTime="0.00" timeLoss="47.22" rerouteNo="1" devices="tripinfo_Car_N1_South_2.0 routing_Car_N1_South_2.0 emissions_Car_N1_South_2.0 ssm_Car_N1_South_2.0" vType="Car" speedFactor="1.17" vaporized="">
        <emissions CO_abs="12130.59" CO2_abs="1432285.57" HC_abs="84.70" PMx_abs="18.07" NOx_abs="522.36" fuel_abs="456835.93" electricity_abs="0.00"/>
    </tripinfo>
    <tripinfo id="Bus_N1_South_2.0" depart="34.00" departLane="409623412_0" departPos="12.10" departSpeed="0.00" departDelay="34.00" arrival="652.00" arrivalLane="955410873_0" arrivalPos="728.89" arrivalSpeed="13.76" duration="618.00" routeLength="7709.24" waitingTime="0.00" waitingCount="0" stopTime="0.00" timeLoss="29.04" rerouteNo="1" devices="tripinfo_Bus_N1_South_2.0 routing_Bus_N1_South_2.0 emissions_Bus_N1_South_2.0 ssm_Bus_N1_South_2.0" vType="Bus" speedFactor="1.00" vaporized="">
        <emissions CO_abs="12673.99" CO2_abs="7624932.90" HC_abs="3005.65" PMx_abs="1371.74" NOx_abs="59630.74" fuel_abs="2413114.35" electricity_abs="0.00"/>
    </tripinfo>
    <tripinfo id="Trailer_South_N1_0.0" depart="0.00" departLane="-955410873_0" departPos="16.60" departSpeed="0.00" departDelay="0.00" arrival="766.00" arrivalLane="653007172#4_0" arrivalPos="2834.46" arrivalSpeed="13.79" duration="766.00" routeLength="9807.65" waitingTime="0.00" waitingCount="0" stopTime="0.00" timeLoss="30.59" rerouteNo="1" devices="tripinfo_Trailer_South_N1_0.0 routing_Trailer_South_N1_0.0 emissions_Trailer_South_N1_0.0 ssm_Trailer_South_N1_0.0" vType="Trailer" speedFactor="1.05" vaporized="">
        <emissions CO_abs="12151.27" CO2_abs="9966961.62" HC_abs="305.38" PMx_abs="235.00" NOx_abs="64542.32" fuel_abs="3134777.33" electricity_abs="0.00"/>
    </tripinfo>
    <tripinfo id="Truck_South_N1_0.0" depart="19.00" departLane="-955410873_0" departPos="7.20" departSpeed="0.00" departDelay="19.00" arrival="801.00" arrivalLane="653007172#4_0" arrivalPos="2834.46" arrivalSpeed="13.65" duration="782.00" routeLength="9817.05" waitingTime="0.00" waitingCount="0" stopTime="0.00" timeLoss="31.58" rerouteNo="1" devices="tripinfo_Truck_South_N1_0.0 routing_Truck_South_N1_0.0 emissions_Truck_South_N1_0.0 ssm_Truck_South_N1_0.0" vType="Truck" speedFactor="0.91" vaporized="">
        <emissions CO_abs="12734.09" CO2_abs="10450834.35" HC_abs="319.84" PMx_abs="247.12" NOx_abs="67670.34" fuel_abs="3286985.37" electricity_abs="0.00"/>
    </tripinfo>
    <tripinfo id="Car_South_N1_0.0" depart="32.00" departLane="-955410873_0" departPos="5.10" departSpeed="0.00" departDelay="32.00" arrival="817.00" arrivalLane="653007172#4_0" arrivalPos="2834.46" arrivalSpeed="12.70" duration="785.00" routeLength="9819.15" waitingTime="0.00" waitingCount="0" stopTime="0.00" timeLoss="52.42" rerouteNo="1" devices="tripinfo_Car_South_N1_0.0 routing_Car_South_N1_0.0 emissions_Car_South_N1_0.0 ssm_Car_South_N1_0.0" vType="Car" speedFactor="1.10" vaporized="">
        <emissions CO_abs="14672.59" CO2_abs="1808824.30" HC_abs="103.69" PMx_abs="22.08" NOx_abs="653.82" fuel_abs="576935.65" electricity_abs="0.00"/>
    </tripinfo>
    <tripinfo id="Bus_South_N1_0.0" depart="42.00" departLane="-955410873_0" departPos="12.10" departSpeed="0.00" departDelay="42.00" arrival="833.00" arrivalLane="653007172#4_0" arrivalPos="2834.46" arrivalSpeed="13.41" duration="791.00" routeLength="9812.15" waitingTime="0.00" waitingCount="0" stopTime="0.00" timeLoss="52.69" rerouteNo="1" devices="tripinfo_Bus_South_N1_0.0 routing_Bus_South_N1_0.0 emissions_Bus_South_N1_0.0 ssm_Bus_South_N1_0.0" vType="Bus" speedFactor="1.00" vaporized="">
        <emissions CO_abs="16165.08" CO2_abs="9993010.89" HC_abs="3696.82" PMx_abs="1747.88" NOx_abs="77557.76" fuel_abs="3162522.09" electricity_abs="0.00"/>
    </tripinfo>
    <tripinfo id="Trailer_South_N1_1.0" depart="7.00" departLane="-955410873_0" departPos="16.60" departSpeed="0.00" departDelay="7.00" arrival="874.00" arrivalLane="434733273_0" arrivalPos="3019.52" arrivalSpeed="13.77" duration="867.00" routeLength="11141.61" waitingTime="0.00" waitingCount="0" stopTime="0.00" timeLoss="32.97" rerouteNo="1" devices="tripinfo_Trailer_South_N1_1.0 routing_Trailer_South_N1_1.0 emissions_Trailer_South_N1_1.0 ssm_Trailer_South_N1_1.0" vType="Trailer" speedFactor="1.01" vaporized="">
        <emissions CO_abs="13845.35" CO2_abs="11340180.15" HC_abs="347.95" PMx_abs="267.49" NOx_abs="73471.60" fuel_abs="3566664.61" electricity_abs="0.00"/>
    </tripinfo>
    <tripinfo id="Truck_South_N1_1.0" depart="23.00" departLane="-955410873_0" departPos="7.20" departSpeed="0.00" departDelay="23.00" arrival="903.00" arrivalLane="434733273_0" arrivalPos="3019.52" arrivalSpeed="13.45" duration="880.00" routeLength="11151.01" waitingTime="1.00" waitingCount="1" stopTime="0.00" timeLoss="35.87" rerouteNo="1" devices="tripinfo_Truck_South_N1_1.0 routing_Truck_South_N1_1.0 emissions_Truck_South_N1_1.0 ssm_Truck_South_N1_1.0" vType="Truck" speedFactor="0.94" vaporized="">
        <emissions CO_abs="14340.24" CO2_abs="11744233.21" HC_abs="360.16" PMx_abs="277.91" NOx_abs="76101.38" fuel_abs="3693764.73" electricity_abs="0.00"/>
    </tripinfo>
    <tripinfo id="Bus_South_N1_1.0" depart="48.00" departLane="-955410873_0" departPos="12.10" departSpeed="0.00" departDelay="48.00" arrival="936.00" arrivalLane="434733273_0" arrivalPos="3019.52" arrivalSpeed="13.48" duration="888.00" routeLength="11140.58" waitingTime="0.00" waitingCount="0" stopTime="0.00" timeLoss="52.16" rerouteNo="1" devices="tripinfo_Bus_South_N1_1.0 routing_Bus_South_N1_1.0 emissions_Bus_South_N1_1.0 ssm_Bus_South_N1_1.0" vType="Bus" speedFactor="1.00" vaporized="">
        <emissions CO_abs="18007.00" CO2_abs="11133659.49" HC_abs="4140.69" PMx_abs="1948.55" NOx_abs="86376.91" fuel_abs="3523525.33" electricity_abs="0.00"/>
    </tripinfo>
    <tripinfo id="Car_South_N1_1.0" depart="35.00" departLane="-955410873_0" departPos="5.10" departSpeed="0.00" departDelay="35.00" arrival="938.00" arrivalLane="434733273_0" arrivalPos="3019.52" arrivalSpeed="12.70" duration="903.00" routeLength="11153.11" waitingTime="0.00" waitingCount="0" stopTime="0.00" timeLoss="53.48" rerouteNo="1" devices="tripinfo_Car_South_N1_1.0 routing_Car_South_N1_1.0 emissions_Car_South_N1_1.0 ssm_Car_South_N1_1.0" vType="Car" speedFactor="0.90" vaporized="">
        <emissions CO_abs="17545.68" CO2_abs="2044582.94" HC_abs="121.68" PMx_abs="25.40" NOx_abs="742.73" fuel_abs="652132.40" electricity_abs="0.00"/>
    </tripinfo>
    <tripinfo id="Trailer_South_N1_2.0" depart="14.00" departLane="-955410873_0" departPos="16.60" departSpeed="0.00" departDelay="14.00" arrival="973.00" arrivalLane="955410819_0" arrivalPos="2625.48" arrivalSpeed="13.72" duration="959.00" routeLength="12410.19" waitingTime="0.00" waitingCount="0" stopTime="0.00" timeLoss="34.35" rerouteNo="1" devices="tripinfo_Trailer_South_N1_2.0 routing_Trailer_South_N1_2.0 emissions_Trailer_South_N1_2.0 ssm_Trailer_South_N1_2.0" vType="Trailer" speedFactor="1.02" vaporized="">
        <emissions CO_abs="15101.84" CO2_abs="12402095.07" HC_abs="379.78" PMx_abs="291.38" NOx_abs="80267.96" fuel_abs="3900658.35" electricity_abs="0.00"/>
    </tripinfo>
    <tripinfo id="Truck_South_N1_2.0" depart="28.00" departLane="-955410873_0" departPos="7.20" departSpeed="0.00" departDelay="28.00" arrival="1000.00" arrivalLane="955410819_0" arrivalPos="2625.48" arrivalSpeed="13.36" duration="972.00" routeLength="12419.59" waitingTime="0.00" waitingCount="0" stopTime="0.00" timeLoss="38.97" rerouteNo="1" devices="tripinfo_Truck_South_N1_2.0 routing_Truck_South_N1_2.0 emissions_Truck_South_N1_2.0 ssm_Truck_South_N1_2.0" vType="Truck" speedFactor="0.96" vaporized="">
        <emissions CO_abs="15854.03" CO2_abs="13029413.23" HC_abs="398.59" PMx_abs="306.48" NOx_abs="84310.84" fuel_abs="4097977.48" electricity_abs="0.00"/>
    </tripinfo>
    <tripinfo id="Bus_South_N1_2.0" depart="54.00" departLane="-955410873_0" departPos="12.10" departSpeed="0.00" departDelay="54.00" arrival="1031.00" arrivalLane="955410819_0" arrivalPos="2625.48" arrivalSpeed="13.61" duration="977.00" routeLength="12414.58" waitingTime="0.00" waitingCount="0" stopTime="0.00" timeLoss="49.96" rerouteNo="1" devices="tripinfo_Bus_South_N1_2.0 routing_Bus_South_N1_2.0 emissions_Bus_South_N1_2.0 ssm_Bus_South_N1_2.0" vType="Bus" speedFactor="1.00" vaporized="">
        <emissions CO_abs="19941.28" CO2_abs="12289937.90" HC_abs="4623.51" PMx_abs="2159.26" NOx_abs="95410.81" fuel_abs="3889477.49" electricity_abs="0.00"/>
    </tripinfo>
    <tripinfo id="Car_South_N1_2.0" depart="38.00" departLane="-955410873_0" departPos="5.10" departSpeed="0.00" departDelay="38.00" arrival="1037.00" arrivalLane="955410819_0" arrivalPos="2625.48" arrivalSpeed="13.87" duration="999.00" routeLength="12421.69" waitingTime="0.00" waitingCount="0" stopTime="0.00" timeLoss="73.48" rerouteNo="1" devices="tripinfo_Car_South_N1_2.0 routing_Car_South_N1_2.0 emissions_Car_South_N1_2.0 ssm_Car_South_N1_2.0" vType="Car" speedFactor="1.03" vaporized="">
        <emissions CO_abs="18744.29" CO2_abs="2267899.75" HC_abs="132.47" PMx_abs="28.25" NOx_abs="824.77" fuel_abs="723360.22" electricity_abs="0.00"/>
    </tripinfo>
    <tripinfo id="SMV_South_Port_0.0" depart="16.00" departLane="1484069398_0" departPos="2.30" departSpeed="0.00" departDelay="16.00" arrival="1069.00" arrivalLane="133487534_0" arrivalPos="583.29" arrivalSpeed="4.75" duration="1053.00" routeLength="4405.90" waitingTime="0.00" waitingCount="0" stopTime="0.00" timeLoss="260.24" rerouteNo="1" devices="tripinfo_SMV_South_Port_0.0 routing_SMV_South_Port_0.0 emissions_SMV_South_Port_0.0 ssm_SMV_South_Port_0.0" vType="SMV" speedFactor="1.10" vaporized="">
        <emissions CO_abs="57748.87" CO2_abs="1801614.51" HC_abs="304.49" PMx_abs="33.51" NOx_abs="763.71" fuel_abs="574648.18" electricity_abs="0.00"/>
    </tripinfo>
    <tripinfo id="SMV_South_Port_0.1" depart="19.00" departLane="1484069398_0" departPos="2.30" departSpeed="0.00" departDelay="5.47" arrival="1077.00" arrivalLane="133487534_0" arrivalPos="583.29" arrivalSpeed="4.18" duration="1058.00" routeLength="4405.90" waitingTime="0.00" waitingCount="0" stopTime="0.00" timeLoss="264.91" rerouteNo="1" devices="tripinfo_SMV_South_Port_0.1 routing_SMV_South_Port_0.1 emissions_SMV_South_Port_0.1 ssm_SMV_South_Port_0.1" vType="SMV" speedFactor="1.00" vaporized="">
        <emissions CO_abs="56526.15" CO2_abs="1774883.00" HC_abs="298.36" PMx_abs="33.23" NOx_abs="753.79" fuel_abs="566121.34" electricity_abs="0.00"/>
    </tripinfo>
    <tripinfo id="SMV_South_Port_0.2" depart="28.00" departLane="1484069398_0" departPos="2.30" departSpeed="0.00" departDelay="0.93" arrival="1084.00" arrivalLane="133487534_0" arrivalPos="583.29" arrivalSpeed="5.38" duration="1056.00" routeLength="4405.90" waitingTime="0.00" waitingCount="0" stopTime="0.00" timeLoss="263.17" rerouteNo="1" devices="tripinfo_SMV_South_Port_0.2 routing_SMV_South_Port_0.2 emissions_SMV_South_Port_0.2 ssm_SMV_South_Port_0.2" vType="SMV" speedFactor="1.02" vaporized="">
        <emissions CO_abs="57202.53" CO2_abs="1820413.34" HC_abs="302.53" PMx_abs="34.16" NOx_abs="773.61" fuel_abs="580643.24" electricity_abs="0.00"/>
    </tripinfo>
    <tripinfo id="SMV_South_Port_0.3" depart="41.00" departLane="1484069398_0" departPos="2.30" departSpeed="0.00" departDelay="0.40" arrival="1100.00" arrivalLane="133487534_0" arrivalPos="583.29" arrivalSpeed="2.79" duration="1059.00" routeLength="4405.90" waitingTime="0.00" waitingCount="0" stopTime="0.00" timeLoss="266.33" rerouteNo="1" devices="tripinfo_SMV_South_Port_0.3 routing_SMV_South_Port_0.3 emissions_SMV_South_Port_0.3 ssm_SMV_South_Port_0.3" vType="SMV" speedFactor="1.12" vaporized="">
        <emissions CO_abs="57051.75" CO2_abs="1784176.29" HC_abs="300.93" PMx_abs="33.25" NOx_abs="756.73" fuel_abs="569085.87" electricity_abs="0.00"/>
    </tripinfo>
    <tripinfo id="SMV_South_Port_0.4" depart="55.00" departLane="1484069398_0" departPos="2.30" departSpeed="0.00" departDelay="0.86" arrival="1109.00" arrivalLane="133487534_0" arrivalPos="583.29" arrivalSpeed="5.32" duration="1054.00" routeLength="4405.90" waitingTime="0.00" waitingCount="0" stopTime="0.00" timeLoss="261.57" rerouteNo="1" devices="tripinfo_SMV_South_Port_0.4 routing_SMV_South_Port_0.4 emissions_SMV_South_Port_0.4 ssm_SMV_South_Port_0.4" vType="SMV" speedFactor="0.91" vaporized="">
        <emissions CO_abs="55849.33" CO2_abs="1758092.09" HC_abs="294.87" PMx_abs="32.80" NOx_abs="745.94" fuel_abs="560765.70" electricity_abs="0.00"/>
    </tripinfo>
    <tripinfo id="Truck_South_Port_0.1" depart="58.00" departLane="1484069398_0" departPos="7.20" departSpeed="0.00" departDelay="1.75" arrival="1112.00" arrivalLane="133487534_0" arrivalPos="583.29" arrivalSpeed="6.51" duration="1054.00" routeLength="4401.00" waitingTime="0.00" waitingCount="0" stopTime="2.00" timeLoss="428.08" rerouteNo="1" devices="tripinfo_Truck_South_Port_0.1 routing_Truck_South_Port_0.1 emissions_Truck_South_Port_0.1 ssm_Truck_South_Port_0.1" vType="Truck" speedFactor="1.01" vaporized="">
        <emissions CO_abs="11889.02" CO2_abs="8121037.09" HC_abs="282.30" PMx_abs="264.37" NOx_abs="56902.95" fuel_abs="2554313.88" electricity_abs="0.00"/>
    </tripinfo>
    <tripinfo id="Car_South_Port_0.1" depart="67.00" departLane="1484069398_0" departPos="5.10" departSpeed="0.00" departDelay="0.33" arrival="1114.00" arrivalLane="133487534_0" arrivalPos="583.29" arrivalSpeed="10.77" duration="1047.00" routeLength="4403.10" waitingTime="2.00" waitingCount="1" stopTime="2.00" timeLoss="636.33" rerouteNo="1" devices="tripinfo_Car_South_Port_0.1 routing_Car_South_Port_0.1 emissions_Car_South_Port_0.1 ssm_Car_South_Port_0.1" vType="Car" speedFactor="0.94" vaporized="">
        <emissions CO_abs="61631.74" CO2_abs="1798037.69" HC_abs="321.70" PMx_abs="32.06" NOx_abs="753.09" fuel_abs="573511.43" electricity_abs="0.00"/>
    </tripinfo>
    <tripinfo id="SMV_South_Port_0.5" depart="69.00" departLane="1484069398_0" departPos="2.30" departSpeed="0.00" departDelay="1.33" arrival="1136.00" arrivalLane="133487534_0" arrivalPos="583.29" arrivalSpeed="4.94" duration="1067.00" routeLength="4405.90" waitingTime="0.00" waitingCount="0" stopTime="0.00" timeLoss="274.45" rerouteNo="1" devices="tripinfo_SMV_South_Port_0.5 routing_SMV_South_Port_0.5 emissions_SMV_South_Port_0.5 ssm_SMV_South_Port_0.5" vType="SMV" speedFactor="0.96" vaporized="">
        <emissions CO_abs="58781.38" CO2_abs="1841182.16" HC_abs="310.16" PMx_abs="34.50" NOx_abs="782.10" fuel_abs="587268.35" electricity_abs="0.00"/>
    </tripinfo>
    <tripinfo id="Bus_South_Port_0.1" depart="82.00" departLane="1484069398_0" departPos="12.10" departSpeed="0.00" departDelay="0.18" arrival="1138.00" arrivalLane="133487534_0" arrivalPos="583.29" arrivalSpeed="6.33" duration="1056.00" routeLength="4396.10" waitingTime="1.00" waitingCount="1" stopTime="2.00" timeLoss="413.61" rerouteNo="1" devices="tripinfo_Bus_South_Port_0.1 routing_Bus_South_Port_0.1 emissions_Bus_South_Port_0.1 ssm_Bus_South_Port_0.1" vType="Bus" speedFactor="1.00" vaporized="">
        <emissions CO_abs="16069.37" CO2_abs="7230675.94" HC_abs="3623.02" PMx_abs="1662.68" NOx_abs="63717.18" fuel_abs="2287527.42" electricity_abs="0.00"/>
    </tripinfo>
    <tripinfo id="SMV_South_Port_0.6" depart="85.00" departLane="1484069398_0" departPos="2.30" departSpeed="0.00" departDelay="3.80" arrival="1147.00" arrivalLane="133487534_0" arrivalPos="583.29" arrivalSpeed="4.61" duration="1062.00" routeLength="4405.90" waitingTime="2.00" waitingCount="1" stopTime="0.00" timeLoss="268.87" rerouteNo="1" devices="tripinfo_SMV_South_Port_0.6 routing_SMV_South_Port_0.6 emissions_SMV_South_Port_0.6 ssm_SMV_South_Port_0.6" vType="SMV" speedFactor="1.01" vaporized="">
        <emissions CO_abs="57600.78" CO2_abs="1795813.42" HC_abs="303.73" PMx_abs="33.65" NOx_abs="762.75" fuel_abs="572797.60" electricity_abs="0.00"/>
    </tripinfo>
    <tripinfo id="SMV_Port_South_0.0" depart="82.00" departLane="-133487534_0" departPos="2.30" departSpeed="0.00" departDelay="82.00" arrival="1159.00" arrivalLane="-1484069398_0" arrivalPos="99.18" arrivalSpeed="5.54" duration="1077.00" routeLength="4407.04" waitingTime="0.00" waitingCount="0" stopTime="0.00" timeLoss="283.48" rerouteNo="1" devices="tripinfo_SMV_Port_South_0.0 routing_SMV_Port_South_0.0 emissions_SMV_Port_South_0.0 ssm_SMV_Port_South_0.0" vType="SMV" speedFactor="0.85" vaporized="">
        <emissions CO_abs="58430.67" CO2_abs="1820070.53" HC_abs="308.09" PMx_abs="34.23" NOx_abs="773.96" fuel_abs="580534.59" electricity_abs="0.00"/>
    </tripinfo>
    <tripinfo id="SMV_South_Port_0.7" depart="95.00" departLane="1484069398_0" departPos="2.30" departSpeed="0.00" departDelay="0.26" arrival="1159.00" arrivalLane="133487534_0" arrivalPos="583.29" arrivalSpeed="4.51" duration="1064.00" routeLength="4405.90" waitingTime="0.00" waitingCount="0" stopTime="0.00" timeLoss="270.99" rerouteNo="1" devices="tripinfo_SMV_South_Port_0.7 routing_SMV_South_Port_0.7 emissions_SMV_South_Port_0.7 ssm_SMV_South_Port_0.7" vType="SMV" speedFactor="0.98" vaporized="">
        <emissions CO_abs="57423.86" CO2_abs="1815628.88" HC_abs="303.42" PMx_abs="34.13" NOx_abs="771.97" fuel_abs="579117.34" electricity_abs="0.00"/>
    </tripinfo>
    <tripinfo id="SMV_Port_South_0.1" depart="84.00" departLane="-133487534_0" departPos="2.30" departSpeed="0.00" departDelay="70.47" arrival="1166.00" arrivalLane="-1484069398_0" arrivalPos="99.18" arrivalSpeed="3.47" duration="1082.00" routeLength="4407.04" waitingTime="0.00" waitingCount="0" stopTime="0.00" timeLoss="288.93" rerouteNo="1" devices="tripinfo_SMV_Port_South_0.1 routing_SMV_Port_South_0.1 emissions_SMV_Port_South_0.1 ssm_SMV_Port_South_0.1" vType="SMV" speedFactor="1.00" vaporized="">
        <emissions CO_abs="58576.00" CO2_abs="1825974.18" HC_abs="308.88" PMx_abs="34.32" NOx_abs="776.31" fuel_abs="582417.64" electricity_abs="0.00"/>
    </tripinfo>
    <tripinfo id="SMV_Port_South_0.2" depart="87.00" departLane="-133487534_0" departPos="2.30" departSpeed="0.00" departDelay="59.93" arrival="1169.00" arrivalLane="-1484069398_0" arrivalPos="99.18" arrivalSpeed="4.00" duration="1082.00" routeLength="4407.04" waitingTime="0.00" waitingCount="0" stopTime="0.00" timeLoss="288.92" rerouteNo="1" devices="tripinfo_SMV_Port_South_0.2 routing_SMV_Port_South_0.2 emissions_SMV_Port_South_0.2 ssm_SMV_Port_South_0.2" vType="SMV" speedFactor="1.14" vaporized="">
        <emissions CO_abs="59562.54" CO2_abs="1852755.17" HC_abs="314.01" PMx_abs="34.93" NOx_abs="788.38" fuel_abs="590959.73" electricity_abs="0.00"/>
    </tripinfo>
    <tripinfo id="SMV_South_Port_0.8" depart="109.00" departLane="1484069398_0" departPos="2.30" departSpeed="0.00" departDelay="0.73" arrival="1170.00" arrivalLane="133487534_0" arrivalPos="583.29" arrivalSpeed="5.23" duration="1061.00" routeLength="4405.90" waitingTime="0.00" waitingCount="0" stopTime="0.00" timeLoss="267.78" rerouteNo="1" devices="tripinfo_SMV_South_Port_0.8 routing_SMV_South_Port_0.8 emissions_SMV_South_Port_0.8 ssm_SMV_South_Port_0.8" vType="SMV" speedFactor="0.83" vaporized="">
        <emissions CO_abs="57018.27" CO2_abs="1790278.62" HC_abs="300.93" PMx_abs="33.43" NOx_abs="759.75" fuel_abs="571032.07" electricity_abs="0.00"/>
    </tripinfo>
    <tripinfo id="Truck_South_Port_0.2" depart="113.00" departLane="1484069398_0" departPos="7.20" departSpeed="0.00" departDelay="0.50" arrival="1172.00" arrivalLane="133487534_0" arrivalPos="583.29" arrivalSpeed="6.22" duration="1059.00" routeLength="4401.00" waitingTime="1.00" waitingCount="1" stopTime="2.00" timeLoss="431.45" rerouteNo="1" devices="tripinfo_Truck_South_Port_0.2 routing_Truck_South_Port_0.2 emissions_Truck_South_Port_0.2 ssm_Truck_South_Port_0.2" vType="Truck" speedFactor="1.03" vaporized="">
        <emissions CO_abs="12123.21" CO2_abs="8285026.68" HC_abs="287.88" PMx_abs="269.57" NOx_abs="58040.03" fuel_abs="2605895.04" electricity_abs="0.00"/>
    </tripinfo>
    <tripinfo id="SMV_Port_South_0.3" depart="89.00" departLane="-133487534_0" departPos="2.30" departSpeed="0.00" departDelay="48.40" arrival="1173.00" arrivalLane="-1484069398_0" arrivalPos="99.18" arrivalSpeed="3.97" duration="1084.00" routeLength="4407.04" waitingTime="1.00" waitingCount="1" stopTime="0.00" timeLoss="291.21" rerouteNo="1" devices="tripinfo_SMV_Port_South_0.3 routing_SMV_Port_South_0.3 emissions_SMV_Port_South_0.3 ssm_SMV_Port_South_0.3" vType="SMV" speedFactor="1.08" vaporized="">
        <emissions CO_abs="59891.66" CO2_abs="1875498.94" HC_abs="316.05" PMx_abs="35.37" NOx_abs="798.14" fuel_abs="598213.88" electricity_abs="0.00"/>
    </tripinfo>