<?xml version="1.0" encoding="UTF-8"?>

<!-- generated on 2026-06-16T05:07:11.477744+00:00 by Eclipse SUMO GUI 1.26.0
<sumoConfiguration xmlns:xsi="http://www.w3.org/2001/XMLSchema-instance" xsi:noNamespaceSchemaLocation="http://sumo.dlr.de/xsd/sumoConfiguration.xsd">

    <input>
        <net-file value="C:\Users\15102\OneDrive - Imperial College London\Course Materials_Semester 3\CIVE70109_Group Design Project\Sumo File\Final Design\Option3-ElevatedRoad\Option3_new.net.xml"/>
        <route-files value="C:\Users\15102\OneDrive - Imperial College London\Course Materials_Semester 3\CIVE70109_Group Design Project\Sumo File\Final Design\Option3-ElevatedRoad\Option3.rou.xml"/>
        <additional-files value="C:\Users\15102\OneDrive - Imperial College London\Course Materials_Semester 3\CIVE70109_Group Design Project\Sumo File\Final Design\Option3-ElevatedRoad\TollPlaza.add.xml"/>
    </input>

    <output>
        <emission-output value="C:\Users\15102\OneDrive - Imperial College London\Course Materials_Semester 3\CIVE70109_Group Design Project\Sumo File\Final Design\Option3-ElevatedRoad\Output/Emissions.xml.gz"/>
        <tripinfo-output value="C:\Users\15102\OneDrive - Imperial College London\Course Materials_Semester 3\CIVE70109_Group Design Project\Sumo File\Final Design\Option3-ElevatedRoad\Output/Tripinfo.xml"/>
    </output>

    <processing>
        <ignore-junction-blocker value="5"/>
        <ignore-route-errors value="true"/>
        <time-to-teleport value="-1"/>
    </processing>

    <ssm_device>
        <device.ssm.probability value="1"/>
        <device.ssm.measures value="TTC PET DRAC"/>
        <device.ssm.file value="Output/SSM.xml"/>
    </ssm_device>

</sumoConfiguration>
-->

<tripinfos xmlns:xsi="http://www.w3.org/2001/XMLSchema-instance" xsi:noNamespaceSchemaLocation="http://sumo.dlr.de/xsd/tripinfo_file.xsd">
    <tripinfo id="Elevated_Port_BTJ.0" depart="0.00" departLane="-133487534_0" departPos="16.60" departSpeed="0.00" departDelay="0.00" arrival="350.00" arrivalLane="E19_0" arrivalPos="61.50" arrivalSpeed="11.18" duration="350.00" routeLength="4284.62" waitingTime="0.00" waitingCount="0" stopTime="2.00" timeLoss="26.68" rerouteNo="1" devices="tripinfo_Elevated_Port_BTJ.0 routing_Elevated_Port_BTJ.0 emissions_Elevated_Port_BTJ.0 ssm_Elevated_Port_BTJ.0" vType="Trailer" speedFactor="1.04" vaporized="">
        <emissions CO_abs="6254.70" CO2_abs="5260321.29" HC_abs="157.46" PMx_abs="122.22" NOx_abs="33755.27" fuel_abs="1654542.89" electricity_abs="0.00"/>
    </tripinfo>
    <tripinfo id="Elevated_BTJ_Port.0" depart="0.00" departLane="-E19_0" departPos="16.60" departSpeed="0.00" departDelay="0.00" arrival="354.00" arrivalLane="133487534.268_0" arrivalPos="328.38" arrivalSpeed="13.68" duration="354.00" routeLength="4341.48" waitingTime="0.00" waitingCount="0" stopTime="2.00" timeLoss="27.94" rerouteNo="1" devices="tripinfo_Elevated_BTJ_Port.0 routing_Elevated_BTJ_Port.0 emissions_Elevated_BTJ_Port.0 ssm_Elevated_BTJ_Port.0" vType="Trailer" speedFactor="0.94" vaporized="">
        <emissions CO_abs="6072.04" CO2_abs="5080802.83" HC_abs="152.76" PMx_abs="118.64" NOx_abs="32670.41" fuel_abs="1598067.50" electricity_abs="0.00"/>
    </tripinfo>
    <tripinfo id="Truck_Elevated_Port_BTJ.0" depart="33.00" departLane="-133487534_0" departPos="7.20" departSpeed="0.00" departDelay="33.00" arrival="402.00" arrivalLane="E19_0" arrivalPos="61.50" arrivalSpeed="13.52" duration="369.00" routeLength="4294.24" waitingTime="2.00" waitingCount="2" stopTime="2.00" timeLoss="36.06" rerouteNo="1" devices="tripinfo_Truck_Elevated_Port_BTJ.0 routing_Truck_Elevated_Port_BTJ.0 emissions_Truck_Elevated_Port_BTJ.0 ssm_Truck_Elevated_Port_BTJ.0" vType="Truck" speedFactor="1.08" vaporized="">
        <emissions CO_abs="6777.22" CO2_abs="5666800.61" HC_abs="170.20" PMx_abs="133.51" NOx_abs="36459.39" fuel_abs="1782405.00" electricity_abs="0.00"/>
    </tripinfo>
    <tripinfo id="Truck_Elevated_BTJ_Port.0" depart="56.00" departLane="-E19_0" departPos="7.20" departSpeed="0.00" departDelay="56.00" arrival="407.00" arrivalLane="133487534.268_0" arrivalPos="328.38" arrivalSpeed="13.87" duration="351.00" routeLength="4350.88" waitingTime="0.00" waitingCount="0" stopTime="2.00" timeLoss="27.40" rerouteNo="1" devices="tripinfo_Truck_Elevated_BTJ_Port.0 routing_Truck_Elevated_BTJ_Port.0 emissions_Truck_Elevated_BTJ_Port.0 ssm_Truck_Elevated_BTJ_Port.0" vType="Truck" speedFactor="1.01" vaporized="">
        <emissions CO_abs="6339.96" CO2_abs="5316675.50" HC_abs="159.61" PMx_abs="123.64" NOx_abs="34156.79" fuel_abs="1672255.88" electricity_abs="0.00"/>
    </tripinfo>
    <tripinfo id="Elevated_Port_South.0" depart="28.00" departLane="-133487534_0" departPos="16.60" departSpeed="0.00" departDelay="28.00" arrival="449.00" arrivalLane="955410878.656.46_0" arrivalPos="292.09" arrivalSpeed="13.52" duration="421.00" routeLength="5067.01" waitingTime="2.00" waitingCount="1" stopTime="2.00" timeLoss="31.52" rerouteNo="1" devices="tripinfo_Elevated_Port_South.0 routing_Elevated_Port_South.0 emissions_Elevated_Port_South.0 ssm_Elevated_Port_South.0" vType="Trailer" speedFactor="0.97" vaporized="">
        <emissions CO_abs="7298.99" CO2_abs="6034144.18" HC_abs="183.14" PMx_abs="143.12" NOx_abs="38973.97" fuel_abs="1897904.78" electricity_abs="0.00"/>
    </tripinfo>
    <tripinfo id="Bus_Elevated_Port_South.0" depart="70.00" departLane="-133487534_0" departPos="12.10" departSpeed="0.00" departDelay="70.00" arrival="524.00" arrivalLane="955410878.656.46_0" arrivalPos="292.09" arrivalSpeed="13.29" duration="454.00" routeLength="5071.51" waitingTime="4.00" waitingCount="3" stopTime="2.00" timeLoss="53.53" rerouteNo="1" devices="tripinfo_Bus_Elevated_Port_South.0 routing_Bus_Elevated_Port_South.0 emissions_Bus_Elevated_Port_South.0 ssm_Bus_Elevated_Port_South.0" vType="Bus" speedFactor="1.00" vaporized="">
        <emissions CO_abs="9980.86" CO2_abs="5864614.63" HC_abs="2304.61" PMx_abs="1072.40" NOx_abs="46342.92" fuel_abs="1855925.58" electricity_abs="0.00"/>
    </tripinfo>
    <tripinfo id="Truck_Elevated_Port_South.0" depart="75.00" departLane="-133487534_0" departPos="7.20" departSpeed="0.00" departDelay="75.00" arrival="536.00" arrivalLane="955410878.656.46_0" arrivalPos="292.09" arrivalSpeed="13.37" duration="461.00" routeLength="5076.41" waitingTime="5.00" waitingCount="3" stopTime="2.00" timeLoss="58.26" rerouteNo="1" devices="tripinfo_Truck_Elevated_Port_South.0 routing_Truck_Elevated_Port_South.0 emissions_Truck_Elevated_Port_South.0 ssm_Truck_Elevated_Port_South.0" vType="Truck" speedFactor="1.01" vaporized="">
        <emissions CO_abs="7932.54" CO2_abs="6465301.63" HC_abs="198.09" PMx_abs="157.60" NOx_abs="42010.26" fuel_abs="2033525.03" electricity_abs="0.00"/>
    </tripinfo>
    <tripinfo id="Truck_Elevated_Port_South.1" depart="110.00" departLane="-133487534_0" departPos="7.20" departSpeed="0.00" departDelay="96.15" arrival="570.00" arrivalLane="955410878.656.46_0" arrivalPos="292.09" arrivalSpeed="13.78" duration="460.00" routeLength="5076.41" waitingTime="0.00" waitingCount="0" stopTime="2.00" timeLoss="82.15" rerouteNo="1" devices="tripinfo_Truck_Elevated_Port_South.1 routing_Truck_Elevated_Port_South.1 emissions_Truck_Elevated_Port_South.1 ssm_Truck_Elevated_Port_South.1" vType="Truck" speedFactor="1.01" vaporized="">
        <emissions CO_abs="7780.59" CO2_abs="6362220.66" HC_abs="194.43" PMx_abs="154.43" NOx_abs="41288.09" fuel_abs="2001108.14" electricity_abs="0.00"/>
    </tripinfo>
    <tripinfo id="Truck_Elevated_Port_South.2" depart="127.00" departLane="-133487534_0" departPos="7.20" departSpeed="0.00" departDelay="99.31" arrival="599.00" arrivalLane="955410878.656.46_0" arrivalPos="292.09" arrivalSpeed="13.41" duration="472.00" routeLength="5076.63" waitingTime="4.00" waitingCount="3" stopTime="2.00" timeLoss="85.10" rerouteNo="1" devices="tripinfo_Truck_Elevated_Port_South.2 routing_Truck_Elevated_Port_South.2 emissions_Truck_Elevated_Port_South.2 ssm_Truck_Elevated_Port_South.2" vType="Truck" speedFactor="0.95" vaporized="">
        <emissions CO_abs="7689.01" CO2_abs="6270458.57" HC_abs="191.96" PMx_abs="152.99" NOx_abs="40737.61" fuel_abs="1972247.89" electricity_abs="0.00"/>
    </tripinfo>
    <tripinfo id="Truck_Elevated_Port_South.3" depart="139.00" departLane="-133487534_0" departPos="7.20" departSpeed="0.00" departDelay="97.46" arrival="616.00" arrivalLane="955410878.656.46_0" arrivalPos="292.09" arrivalSpeed="13.36" duration="477.00" routeLength="5076.41" waitingTime="3.00" waitingCount="2" stopTime="2.00" timeLoss="88.21" rerouteNo="1" devices="tripinfo_Truck_Elevated_Port_South.3 routing_Truck_Elevated_Port_South.3 emissions_Truck_Elevated_Port_South.3 ssm_Truck_Elevated_Port_South.3" vType="Truck" speedFactor="0.98" vaporized="">
        <emissions CO_abs="7994.86" CO2_abs="6434389.25" HC_abs="199.02" PMx_abs="159.78" NOx_abs="42019.26" fuel_abs="2023790.76" electricity_abs="0.00"/>
    </tripinfo>
    <tripinfo id="Bus_Elevated_Port_South.1" depart="159.00" departLane="-133487534_0" departPos="12.10" departSpeed="0.00" departDelay="103.62" arrival="644.00" arrivalLane="955410878.656.46_0" arrivalPos="292.09" arrivalSpeed="13.85" duration="485.00" routeLength="5071.73" waitingTime="4.00" waitingCount="3" stopTime="2.00" timeLoss="92.35" rerouteNo="1" devices="tripinfo_Bus_Elevated_Port_South.1 routing_Bus_Elevated_Port_South.1 emissions_Bus_Elevated_Port_South.1 ssm_Bus_Elevated_Port_South.1" vType="Bus" speedFactor="1.00" vaporized="">
        <emissions CO_abs="10108.71" CO2_abs="5815552.74" HC_abs="2336.40" PMx_abs="1082.76" NOx_abs="46302.03" fuel_abs="1840364.05" electricity_abs="0.00"/>
    </tripinfo>
    <tripinfo id="Truck_Elevated_Port_South.4" depart="163.00" departLane="-133487534_0" departPos="7.20" departSpeed="0.00" departDelay="107.62" arrival="652.00" arrivalLane="955410878.656.46_0" arrivalPos="292.09" arrivalSpeed="13.75" duration="489.00" routeLength="5076.41" waitingTime="2.00" waitingCount="2" stopTime="2.00" timeLoss="93.18" rerouteNo="1" devices="tripinfo_Truck_Elevated_Port_South.4 routing_Truck_Elevated_Port_South.4 emissions_Truck_Elevated_Port_South.4 ssm_Truck_Elevated_Port_South.4" vType="Truck" speedFactor="1.05" vaporized="">
        <emissions CO_abs="8171.59" CO2_abs="6560335.50" HC_abs="203.11" PMx_abs="164.20" NOx_abs="42890.43" fuel_abs="2063417.58" electricity_abs="0.00"/>
    </tripinfo>
    <tripinfo id="Elevated_BTJ_Port.1" depart="304.00" departLane="-E19_0" departPos="16.60" departSpeed="0.00" departDelay="132.57" arrival="655.00" arrivalLane="133487534.268_0" arrivalPos="328.38" arrivalSpeed="13.70" duration="351.00" routeLength="4341.48" waitingTime="0.00" waitingCount="0" stopTime="2.00" timeLoss="26.91" rerouteNo="1" devices="tripinfo_Elevated_BTJ_Port.1 routing_Elevated_BTJ_Port.1 emissions_Elevated_BTJ_Port.1 ssm_Elevated_BTJ_Port.1" vType="Trailer" speedFactor="0.99" vaporized="">
        <emissions CO_abs="6009.50" CO2_abs="5006503.93" HC_abs="151.11" PMx_abs="117.31" NOx_abs="32243.92" fuel_abs="1574686.98" electricity_abs="0.00"/>
    </tripinfo>
    <tripinfo id="Truck_Elevated_BTJ_Port.1" depart="309.00" departLane="-E19_0" departPos="7.20" departSpeed="0.00" departDelay="137.57" arrival="664.00" arrivalLane="133487534.268_0" arrivalPos="328.38" arrivalSpeed="13.58" duration="355.00" routeLength="4342.18" waitingTime="0.00" waitingCount="0" stopTime="2.00" timeLoss="29.26" rerouteNo="1" devices="tripinfo_Truck_Elevated_BTJ_Port.1 routing_Truck_Elevated_BTJ_Port.1 emissions_Truck_Elevated_BTJ_Port.1 ssm_Truck_Elevated_BTJ_Port.1" vType="Truck" speedFactor="1.01" vaporized="">
        <emissions CO_abs="6268.72" CO2_abs="5250555.21" HC_abs="157.76" PMx_abs="122.36" NOx_abs="33748.39" fuel_abs="1651459.20" electricity_abs="0.00"/>
    </tripinfo>
    <tripinfo id="Truck_Elevated_Port_South.5" depart="185.00" departLane="-133487534_0" departPos="7.20" departSpeed="0.00" departDelay="115.77" arrival="667.00" arrivalLane="955410878.656.46_0" arrivalPos="292.09" arrivalSpeed="13.80" duration="482.00" routeLength="5076.41" waitingTime="2.00" waitingCount="2" stopTime="2.00" timeLoss="89.14" rerouteNo="1" devices="tripinfo_Truck_Elevated_Port_South.5 routing_Truck_Elevated_Port_South.5 emissions_Truck_Elevated_Port_South.5 ssm_Truck_Elevated_Port_South.5" vType="Truck" speedFactor="1.06" vaporized="">
        <emissions CO_abs="8014.09" CO2_abs="6430504.33" HC_abs="199.36" PMx_abs="160.36" NOx_abs="42044.04" fuel_abs="2022565.62" electricity_abs="0.00"/>
    </tripinfo>
    <tripinfo id="Truck_Elevated_Port_South.6" depart="203.00" departLane="-133487534_0" departPos="7.20" departSpeed="0.00" departDelay="119.92" arrival="701.00" arrivalLane="955410878.656.46_0" arrivalPos="292.09" arrivalSpeed="13.41" duration="498.00" routeLength="5076.63" waitingTime="3.00" waitingCount="2" stopTime="2.00" timeLoss="95.62" rerouteNo="1" devices="tripinfo_Truck_Elevated_Port_South.6 routing_Truck_Elevated_Port_South.6 emissions_Truck_Elevated_Port_South.6 ssm_Truck_Elevated_Port_South.6" vType="Truck" speedFactor="0.94" vaporized="">
        <emissions CO_abs="8190.46" CO2_abs="6576964.73" HC_abs="203.54" PMx_abs="164.77" NOx_abs="42998.41" fuel_abs="2068653.57" electricity_abs="0.00"/>
    </tripinfo>
    <tripinfo id="Truck_Elevated_Port_South.7" depart="214.00" departLane="-133487534_0" departPos="7.20" departSpeed="0.00" departDelay="117.08" arrival="721.00" arrivalLane="955410878.656.46_0" arrivalPos="292.09" arrivalSpeed="13.69" duration="507.00" routeLength="5076.41" waitingTime="5.00" waitingCount="4" stopTime="2.00" timeLoss="105.63" rerouteNo="1" devices="tripinfo_Truck_Elevated_Port_South.7 routing_Truck_Elevated_Port_South.7 emissions_Truck_Elevated_Port_South.7 ssm_Truck_Elevated_Port_South.7" vType="Truck" speedFactor="1.06" vaporized="">
        <emissions CO_abs="8406.64" CO2_abs="6644429.10" HC_abs="208.21" PMx_abs="169.93" NOx_abs="43711.98" fuel_abs="2089848.78" electricity_abs="0.00"/>
    </tripinfo>
    <tripinfo id="Elevated_Port_South.1" depart="234.00" departLane="-133487534_0" departPos="16.60" departSpeed="0.00" departDelay="124.91" arrival="755.00" arrivalLane="955410878.656.46_0" arrivalPos="292.09" arrivalSpeed="13.47" duration="521.00" routeLength="5067.01" waitingTime="3.00" waitingCount="2" stopTime="2.00" timeLoss="108.94" rerouteNo="1" devices="tripinfo_Elevated_Port_South.1 routing_Elevated_Port_South.1 emissions_Elevated_Port_South.1 ssm_Elevated_Port_South.1" vType="Trailer" speedFactor="0.96" vaporized="">
        <emissions CO_abs="8330.90" CO2_abs="6509180.76" HC_abs="205.73" PMx_abs="169.29" NOx_abs="43015.06" fuel_abs="2047299.90" electricity_abs="0.00"/>
    </tripinfo>
    <tripinfo id="Truck_Elevated_Port_South.10" depart="297.00" departLane="-133487534_0" departPos="7.20" departSpeed="0.00" departDelay="158.54" arrival="765.00" arrivalLane="955410878.656.46_0" arrivalPos="292.09" arrivalSpeed="13.58" duration="468.00" routeLength="5076.63" waitingTime="9.00" waitingCount="2" stopTime="2.00" timeLoss="85.32" rerouteNo="1" devices="tripinfo_Truck_Elevated_Port_South.10 routing_Truck_Elevated_Port_South.10 emissions_Truck_Elevated_Port_South.10 ssm_Truck_Elevated_Port_South.10" vType="Truck" speedFactor="1.01" vaporized="">
        <emissions CO_abs="8028.06" CO2_abs="6510792.58" HC_abs="200.17" PMx_abs="160.10" NOx_abs="42391.32" fuel_abs="2047833.95" electricity_abs="0.00"/>
    </tripinfo>
    <tripinfo id="Elevated_BTJ_N1_R2.0" depart="14.00" departLane="-E19_0" departPos="16.60" departSpeed="0.00" departDelay="14.00" arrival="773.00" arrivalLane="955410838#0_0" arrivalPos="450.22" arrivalSpeed="13.79" duration="759.00" routeLength="9947.98" waitingTime="0.00" waitingCount="0" stopTime="0.00" timeLoss="38.03" rerouteNo="1" devices="tripinfo_Elevated_BTJ_N1_R2.0 routing_Elevated_BTJ_N1_R2.0 emissions_Elevated_BTJ_N1_R2.0 ssm_Elevated_BTJ_N1_R2.0" vType="Trailer" speedFactor="1.02" vaporized="">
        <emissions CO_abs="12493.57" CO2_abs="10400367.12" HC_abs="315.00" PMx_abs="240.44" NOx_abs="66966.12" fuel_abs="3271126.99" electricity_abs="0.00"/>
    </tripinfo>
    <tripinfo id="Bus_Elevated_Port_South.2" depart="240.00" departLane="-133487534_0" departPos="12.10" departSpeed="0.00" departDelay="129.23" arrival="774.00" arrivalLane="955410878.656.46_0" arrivalPos="292.09" arrivalSpeed="13.33" duration="534.00" routeLength="5071.73" waitingTime="3.00" waitingCount="2" stopTime="2.00" timeLoss="121.73" rerouteNo="1" devices="tripinfo_Bus_Elevated_Port_South.2 routing_Bus_Elevated_Port_South.2 emissions_Bus_Elevated_Port_South.2 ssm_Bus_Elevated_Port_South.2" vType="Bus" speedFactor="1.00" vaporized="">
        <emissions CO_abs="11094.90" CO2_abs="6134021.58" HC_abs="2561.32" PMx_abs="1181.73" NOx_abs="49585.50" fuel_abs="1941071.05" electricity_abs="0.00"/>
    </tripinfo>
    <tripinfo id="Elevated_BTJ_N1_R1.0" depart="7.00" departLane="-E19_0" departPos="16.60" departSpeed="0.00" departDelay="7.00" arrival="780.00" arrivalLane="653007172#3.272.351_0" arrivalPos="2293.28" arrivalSpeed="13.79" duration="773.00" routeLength="10351.59" waitingTime="0.00" waitingCount="0" stopTime="0.00" timeLoss="25.34" rerouteNo="1" devices="tripinfo_Elevated_BTJ_N1_R1.0 routing_Elevated_BTJ_N1_R1.0 emissions_Elevated_BTJ_N1_R1.0 ssm_Elevated_BTJ_N1_R1.0" vType="Trailer" speedFactor="1.01" vaporized="">
        <emissions CO_abs="12567.63" CO2_abs="10385878.38" HC_abs="316.79" PMx_abs="240.78" NOx_abs="67043.72" fuel_abs="3266513.80" electricity_abs="0.00"/>
    </tripinfo>
    <tripinfo id="Truck_Elevated_Port_South.8" depart="245.00" departLane="-133487534_0" departPos="7.20" departSpeed="0.00" departDelay="134.23" arrival="783.00" arrivalLane="955410878.656.46_0" arrivalPos="292.09" arrivalSpeed="13.67" duration="538.00" routeLength="5076.41" waitingTime="3.00" waitingCount="3" stopTime="2.00" timeLoss="123.32" rerouteNo="1" devices="tripinfo_Truck_Elevated_Port_South.8 routing_Truck_Elevated_Port_South.8 emissions_Truck_Elevated_Port_South.8 ssm_Truck_Elevated_Port_South.8" vType="Truck" speedFactor="0.99" vaporized="">
        <emissions CO_abs="8652.85" CO2_abs="6791943.40" HC_abs="213.68" PMx_abs="176.48" NOx_abs="44817.84" fuel_abs="2136262.88" electricity_abs="0.00"/>
    </tripinfo>
    <tripinfo id="Bus_Elevated_BTJ_N1_R2.0" depart="32.00" departLane="-E19_0" departPos="12.10" departSpeed="0.00" departDelay="32.00" arrival="792.00" arrivalLane="955410838#0_0" arrivalPos="450.22" arrivalSpeed="13.46" duration="760.00" routeLength="9948.97" waitingTime="0.00" waitingCount="0" stopTime="0.00" timeLoss="38.66" rerouteNo="1" devices="tripinfo_Bus_Elevated_BTJ_N1_R2.0 routing_Bus_Elevated_BTJ_N1_R2.0 emissions_Bus_Elevated_BTJ_N1_R2.0 ssm_Bus_Elevated_BTJ_N1_R2.0" vType="Bus" speedFactor="1.00" vaporized="">
        <emissions CO_abs="16125.49" CO2_abs="9950059.59" HC_abs="3794.39" PMx_abs="1749.81" NOx_abs="77146.83" fuel_abs="3149005.62" electricity_abs="0.00"/>
    </tripinfo>
    <tripinfo id="Elevated_N1_BTJ_R2.0" depart="0.00" departLane="802491129#1_0" departPos="16.60" departSpeed="0.00" departDelay="0.00" arrival="797.00" arrivalLane="E19_0" arrivalPos="61.50" arrivalSpeed="12.10" duration="797.00" routeLength="10261.13" waitingTime="0.00" waitingCount="0" stopTime="0.00" timeLoss="45.50" rerouteNo="1" devices="tripinfo_Elevated_N1_BTJ_R2.0 routing_Elevated_N1_BTJ_R2.0 emissions_Elevated_N1_BTJ_R2.0 ssm_Elevated_N1_BTJ_R2.0" vType="Trailer" speedFactor="0.97" vaporized="">
        <emissions CO_abs="13426.85" CO2_abs="11212257.06" HC_abs="338.38" PMx_abs="259.57" NOx_abs="72118.32" fuel_abs="3526525.03" electricity_abs="0.00"/>
    </tripinfo>
    <tripinfo id="Bus_Elevated_BTJ_N1_R1.0" depart="27.00" departLane="-E19_0" departPos="12.10" departSpeed="0.00" departDelay="27.00" arrival="801.00" arrivalLane="653007172#3.272.351_0" arrivalPos="2293.28" arrivalSpeed="13.83" duration="774.00" routeLength="10356.09" waitingTime="0.00" waitingCount="0" stopTime="0.00" timeLoss="26.45" rerouteNo="1" devices="tripinfo_Bus_Elevated_BTJ_N1_R1.0 routing_Bus_Elevated_BTJ_N1_R1.0 emissions_Bus_Elevated_BTJ_N1_R1.0 ssm_Bus_Elevated_BTJ_N1_R1.0" vType="Bus" speedFactor="1.00" vaporized="">
        <emissions CO_abs="16142.25" CO2_abs="9895115.61" HC_abs="3865.81" PMx_abs="1754.40" NOx_abs="76815.35" fuel_abs="3131654.26" electricity_abs="0.00"/>
    </tripinfo>
    <tripinfo id="Truck_Elevated_BTJ_N1_R2.0" depart="47.00" departLane="-E19_0" departPos="7.20" departSpeed="0.00" departDelay="47.00" arrival="806.00" arrivalLane="955410838#0_0" arrivalPos="450.22" arrivalSpeed="13.38" duration="759.00" routeLength="9957.23" waitingTime="0.00" waitingCount="0" stopTime="0.00" timeLoss="38.39" rerouteNo="1" devices="tripinfo_Truck_Elevated_BTJ_N1_R2.0 routing_Truck_Elevated_BTJ_N1_R2.0 emissions_Truck_Elevated_BTJ_N1_R2.0 ssm_Truck_Elevated_BTJ_N1_R2.0" vType="Truck" speedFactor="1.08" vaporized="">
        <emissions CO_abs="12856.44" CO2_abs="10729599.46" HC_abs="324.29" PMx_abs="247.39" NOx_abs="69020.77" fuel_abs="3374687.82" electricity_abs="0.00"/>
    </tripinfo>
    <tripinfo id="Elevated_N1_BTJ_R3.0" depart="0.00" departLane="409623411_0" departPos="16.60" departSpeed="0.00" departDelay="0.00" arrival="821.00" arrivalLane="E19_0" arrivalPos="61.50" arrivalSpeed="11.54" duration="821.00" routeLength="10473.80" waitingTime="5.00" waitingCount="1" stopTime="0.00" timeLoss="59.54" rerouteNo="1" devices="tripinfo_Elevated_N1_BTJ_R3.0 routing_Elevated_N1_BTJ_R3.0 emissions_Elevated_N1_BTJ_R3.0 ssm_Elevated_N1_BTJ_R3.0" vType="Trailer" speedFactor="1.01" vaporized="">
        <emissions CO_abs="13750.07" CO2_abs="11483135.75" HC_abs="346.35" PMx_abs="266.58" NOx_abs="73870.15" fuel_abs="3611739.91" electricity_abs="0.00"/>
    </tripinfo>
    <tripinfo id="Truck_Elevated_BTJ_N1_R1.0" depart="43.00" departLane="-E19_0" departPos="7.20" departSpeed="0.00" departDelay="43.00" arrival="822.00" arrivalLane="653007172#3.272.351_0" arrivalPos="2293.28" arrivalSpeed="13.31" duration="779.00" routeLength="10360.99" waitingTime="0.00" waitingCount="0" stopTime="0.00" timeLoss="28.00" rerouteNo="1" devices="tripinfo_Truck_Elevated_BTJ_N1_R1.0 routing_Truck_Elevated_BTJ_N1_R1.0 emissions_Truck_Elevated_BTJ_N1_R1.0 ssm_Truck_Elevated_BTJ_N1_R1.0" vType="Truck" speedFactor="0.97" vaporized="">
        <emissions CO_abs="12891.17" CO2_abs="10713197.31" HC_abs="325.12" PMx_abs="247.42" NOx_abs="69016.88" fuel_abs="3369495.62" electricity_abs="0.00"/>
    </tripinfo>
    <tripinfo id="Truck_Elevated_Port_South.9" depart="274.00" departLane="-133487534_0" departPos="7.20" departSpeed="0.00" departDelay="149.39" arrival="825.00" arrivalLane="955410878.656.46_0" arrivalPos="292.09" arrivalSpeed="13.71" duration="551.00" routeLength="5076.41" waitingTime="5.00" waitingCount="4" stopTime="2.00" timeLoss="131.63" rerouteNo="1" devices="tripinfo_Truck_Elevated_Port_South.9 routing_Truck_Elevated_Port_South.9 emissions_Truck_Elevated_Port_South.9 ssm_Truck_Elevated_Port_South.9" vType="Truck" speedFactor="0.97" vaporized="">
        <emissions CO_abs="8986.08" CO2_abs="6980454.50" HC_abs="221.36" PMx_abs="184.06" NOx_abs="46256.21" fuel_abs="2195543.60" electricity_abs="0.00"/>
    </tripinfo>
    <tripinfo id="Bus_Elevated_N1_BTJ_R2.0" depart="20.00" departLane="802491129#1_0" departPos="12.10" departSpeed="0.00" departDelay="20.00" arrival="826.00" arrivalLane="E19_0" arrivalPos="61.50" arrivalSpeed="12.53" duration="806.00" routeLength="10260.49" waitingTime="1.00" waitingCount="1" stopTime="0.00" timeLoss="59.32" rerouteNo="1" devices="tripinfo_Bus_Elevated_N1_BTJ_R2.0 routing_Bus_Elevated_N1_BTJ_R2.0 emissions_Bus_Elevated_N1_BTJ_R2.0 ssm_Bus_Elevated_N1_BTJ_R2.0" vType="Bus" speedFactor="1.00" vaporized="">
        <emissions CO_abs="17251.29" CO2_abs="10672408.80" HC_abs="3976.99" PMx_abs="1867.44" NOx_abs="82771.08" fuel_abs="3377558.31" electricity_abs="0.00"/>
    </tripinfo>
    <tripinfo id="Truck_Elevated_N1_BTJ_R2.0" depart="25.00" departLane="802491129#1_0" departPos="7.20" departSpeed="0.00" departDelay="25.00" arrival="837.00" arrivalLane="E19_0" arrivalPos="61.50" arrivalSpeed="12.34" duration="812.00" routeLength="10270.32" waitingTime="0.00" waitingCount="0" stopTime="0.00" timeLoss="56.45" rerouteNo="1" devices="tripinfo_Truck_Elevated_N1_BTJ_R2.0 routing_Truck_Elevated_N1_BTJ_R2.0 emissions_Truck_Elevated_N1_BTJ_R2.0 ssm_Truck_Elevated_N1_BTJ_R2.0" vType="Truck" speedFactor="0.94" vaporized="">
        <emissions CO_abs="14060.90" CO2_abs="11769386.25" HC_abs="354.23" PMx_abs="272.81" NOx_abs="75638.12" fuel_abs="3701792.74" electricity_abs="0.00"/>
    </tripinfo>
    <tripinfo id="Truck_Elevated_Port_South.14" depart="370.00" departLane="-133487534_0" departPos="7.20" departSpeed="0.00" departDelay="176.16" arrival="851.00" arrivalLane="955410878.656.46_0" arrivalPos="292.09" arrivalSpeed="13.77" duration="481.00" routeLength="5076.63" waitingTime="20.00" waitingCount="4" stopTime="2.00" timeLoss="95.38" rerouteNo="1" devices="tripinfo_Truck_Elevated_Port_South.14 routing_Truck_Elevated_Port_South.14 emissions_Truck_Elevated_Port_South.14 ssm_Truck_Elevated_Port_South.14" vType="Truck" speedFactor="1.02" vaporized="">
        <emissions CO_abs="8143.02" CO2_abs="6527988.61" HC_abs="202.52" PMx_abs="163.00" NOx_abs="42696.85" fuel_abs="2053225.86" electricity_abs="0.00"/>
    </tripinfo>
    <tripinfo id="Truck_Elevated_BTJ_N1_R1.1" depart="84.00" departLane="-E19_0" departPos="7.20" departSpeed="0.00" departDelay="74.78" arrival="865.00" arrivalLane="653007172#3.272.351_0" arrivalPos="2293.28" arrivalSpeed="13.81" duration="781.00" routeLength="10360.99" waitingTime="0.00" waitingCount="0" stopTime="0.00" timeLoss="33.45" rerouteNo="1" devices="tripinfo_Truck_Elevated_BTJ_N1_R1.1 routing_Truck_Elevated_BTJ_N1_R1.1 emissions_Truck_Elevated_BTJ_N1_R1.1 ssm_Truck_Elevated_BTJ_N1_R1.1" vType="Truck" speedFactor="1.00" vaporized="">
        <emissions CO_abs="12882.87" CO2_abs="10690113.21" HC_abs="324.81" PMx_abs="247.34" NOx_abs="68907.72" fuel_abs="3362230.33" electricity_abs="0.00"/>
    </tripinfo>
    <tripinfo id="Truck_Elevated_N1_BTJ_R2.1" depart="74.00" departLane="802491129#1_0" departPos="7.20" departSpeed="0.00" departDelay="0.23" arrival="866.00" arrivalLane="E19_0" arrivalPos="61.50" arrivalSpeed="12.67" duration="792.00" routeLength="10265.93" waitingTime="0.00" waitingCount="0" stopTime="0.00" timeLoss="45.61" rerouteNo="1" devices="tripinfo_Truck_Elevated_N1_BTJ_R2.1 routing_Truck_Elevated_N1_BTJ_R2.1 emissions_Truck_Elevated_N1_BTJ_R2.1 ssm_Truck_Elevated_N1_BTJ_R2.1" vType="Truck" speedFactor="1.01" vaporized="">
        <emissions CO_abs="13870.92" CO2_abs="11641825.79" HC_abs="349.94" PMx_abs="267.87" NOx_abs="74742.40" fuel_abs="3661651.43" electricity_abs="0.00"/>
    </tripinfo>
    <tripinfo id="Bus_Elevated_BTJ_N1_R1.1" depart="90.00" departLane="-E19_0" departPos="12.10" departSpeed="0.00" departDelay="73.39" arrival="867.00" arrivalLane="653007172#3.272.351_0" arrivalPos="2293.28" arrivalSpeed="13.30" duration="777.00" routeLength="10356.09" waitingTime="0.00" waitingCount="0" stopTime="0.00" timeLoss="29.95" rerouteNo="1" devices="tripinfo_Bus_Elevated_BTJ_N1_R1.1 routing_Bus_Elevated_BTJ_N1_R1.1 emissions_Bus_Elevated_BTJ_N1_R1.1 ssm_Bus_Elevated_BTJ_N1_R1.1" vType="Bus" speedFactor="1.00" vaporized="">
        <emissions CO_abs="16103.84" CO2_abs="9877103.19" HC_abs="3843.18" PMx_abs="1749.51" NOx_abs="76676.75" fuel_abs="3125944.54" electricity_abs="0.00"/>
    </tripinfo>
    <tripinfo id="Truck_Elevated_Port_South.11" depart="308.00" departLane="-133487534_0" departPos="7.20" departSpeed="0.00" departDelay="155.69" arrival="868.00" arrivalLane="955410878.656.46_0" arrivalPos="292.09" arrivalSpeed="13.75" duration="560.00" routeLength="5076.41" waitingTime="10.00" waitingCount="5" stopTime="2.00" timeLoss="139.88" rerouteNo="1" devices="tripinfo_Truck_Elevated_Port_South.11 routing_Truck_Elevated_Port_South.11 emissions_Truck_Elevated_Port_South.11 ssm_Truck_Elevated_Port_South.11" vType="Truck" speedFactor="1.00" vaporized="">
        <emissions CO_abs="8925.33" CO2_abs="6922647.99" HC_abs="219.74" PMx_abs="183.08" NOx_abs="45900.78" fuel_abs="2177363.11" electricity_abs="0.00"/>
    </tripinfo>
    <tripinfo id="Bus_Elevated_N1_BTJ_R3.0" depart="20.00" departLane="409623411_0" departPos="12.10" departSpeed="0.00" departDelay="20.00" arrival="869.00" arrivalLane="E19_0" arrivalPos="61.50" arrivalSpeed="12.32" duration="849.00" routeLength="10473.91" waitingTime="9.00" waitingCount="3" stopTime="0.00" timeLoss="87.87" rerouteNo="1" devices="tripinfo_Bus_Elevated_N1_BTJ_R3.0 routing_Bus_Elevated_N1_BTJ_R3.0 emissions_Bus_Elevated_N1_BTJ_R3.0 ssm_Bus_Elevated_N1_BTJ_R3.0" vType="Bus" speedFactor="1.00" vaporized="">
        <emissions CO_abs="18356.05" CO2_abs="11234942.44" HC_abs="4223.74" PMx_abs="1983.29" NOx_abs="87473.23" fuel_abs="3555546.27" electricity_abs="0.00"/>
    </tripinfo>
    <tripinfo id="Truck_Elevated_BTJ_N1_R1.2" depart="95.00" departLane="-E19_0" departPos="7.20" departSpeed="0.00" departDelay="76.56" arrival="872.00" arrivalLane="653007172#3.272.351_0" arrivalPos="2293.28" arrivalSpeed="13.76" duration="777.00" routeLength="10360.99" waitingTime="0.00" waitingCount="0" stopTime="0.00" timeLoss="28.17" rerouteNo="1" devices="tripinfo_Truck_Elevated_BTJ_N1_R1.2 routing_Truck_Elevated_BTJ_N1_R1.2 emissions_Truck_Elevated_BTJ_N1_R1.2 ssm_Truck_Elevated_BTJ_N1_R1.2" vType="Truck" speedFactor="0.99" vaporized="">
        <emissions CO_abs="12934.73" CO2_abs="10681811.83" HC_abs="325.98" PMx_abs="247.96" NOx_abs="68973.42" fuel_abs="3359589.43" electricity_abs="0.00"/>
    </tripinfo>