<?xml version="1.0" encoding="UTF-8"?>

<!-- generated on 2026-06-16T05:06:53.896515+00:00 by Eclipse SUMO GUI 1.26.0
<sumoConfiguration xmlns:xsi="http://www.w3.org/2001/XMLSchema-instance" xsi:noNamespaceSchemaLocation="http://sumo.dlr.de/xsd/sumoConfiguration.xsd">

    <input>
        <net-file value="C:\Users\15102\OneDrive - Imperial College London\Course Materials_Semester 3\CIVE70109_Group Design Project\Sumo File\Final Design\Option1-ServiceLane\Option1_new.net.xml"/>
        <route-files value="C:\Users\15102\OneDrive - Imperial College London\Course Materials_Semester 3\CIVE70109_Group Design Project\Sumo File\Final Design\Option1-ServiceLane\Option1.rou.xml"/>
        <additional-files value="C:\Users\15102\OneDrive - Imperial College London\Course Materials_Semester 3\CIVE70109_Group Design Project\Sumo File\Final Design\Option1-ServiceLane\TollPlaza.add.xml"/>
    </input>

    <output>
        <emission-output value="C:\Users\15102\OneDrive - Imperial College London\Course Materials_Semester 3\CIVE70109_Group Design Project\Sumo File\Final Design\Option1-ServiceLane\Output/Emissions.xml.gz"/>
        <tripinfo-output value="C:\Users\15102\OneDrive - Imperial College London\Course Materials_Semester 3\CIVE70109_Group Design Project\Sumo File\Final Design\Option1-ServiceLane\Output/Tripinfo.xml"/>
    </output>

    <processing>
        <ignore-junction-blocker value="5"/>
        <ignore-route-errors value="true"/>
        <time-to-teleport value="-1"/>
    </processing>

    <ssm_device>
        <device.ssm.probability value="1"/>
        <device.ssm.measures value="TTC PET DRAC"/>
        <device.ssm.file value="Output/SSM.xml"/>
    </ssm_device>

</sumoConfiguration>
-->

<tripinfos xmlns:xsi="http://www.w3.org/2001/XMLSchema-instance" xsi:noNamespaceSchemaLocation="http://sumo.dlr.de/xsd/tripinfo_file.xsd">
    <tripinfo id="Trailer_BT_Port_0.0" depart="21.00" departLane="-E19_0" departPos="16.60" departSpeed="0.00" departDelay="21.00" arrival="366.00" arrivalLane="133487534_0" arrivalPos="588.58" arrivalSpeed="13.55" duration="345.00" routeLength="4335.31" waitingTime="0.00" waitingCount="0" stopTime="2.00" timeLoss="23.83" rerouteNo="1" devices="tripinfo_Trailer_BT_Port_0.0 routing_Trailer_BT_Port_0.0 emissions_Trailer_BT_Port_0.0 ssm_Trailer_BT_Port_0.0" vType="Trailer" speedFactor="1.02" vaporized="">
        <emissions CO_abs="5814.48" CO2_abs="4815825.94" HC_abs="146.17" PMx_abs="113.12" NOx_abs="31079.40" fuel_abs="1514693.17" electricity_abs="0.00"/>
    </tripinfo>
    <tripinfo id="Trailer_Port_BT_0.0" depart="21.00" departLane="-133487534_0" departPos="16.60" departSpeed="0.00" departDelay="21.00" arrival="379.00" arrivalLane="E19_0" arrivalPos="61.50" arrivalSpeed="12.57" duration="358.00" routeLength="4278.25" waitingTime="2.00" waitingCount="1" stopTime="2.00" timeLoss="27.15" rerouteNo="1" devices="tripinfo_Trailer_Port_BT_0.0 routing_Trailer_Port_BT_0.0 emissions_Trailer_Port_BT_0.0 ssm_Trailer_Port_BT_0.0" vType="Trailer" speedFactor="0.94" vaporized="">
        <emissions CO_abs="6265.71" CO2_abs="5157374.34" HC_abs="157.10" PMx_abs="122.93" NOx_abs="33371.59" fuel_abs="1622128.69" electricity_abs="0.00"/>
    </tripinfo>
    <tripinfo id="Truck_BT_Port_0.0" depart="38.00" departLane="-E19_0" departPos="7.20" departSpeed="0.00" departDelay="38.00" arrival="381.00" arrivalLane="133487534_0" arrivalPos="588.58" arrivalSpeed="13.38" duration="343.00" routeLength="4344.71" waitingTime="1.00" waitingCount="1" stopTime="2.00" timeLoss="20.26" rerouteNo="1" devices="tripinfo_Truck_BT_Port_0.0 routing_Truck_BT_Port_0.0 emissions_Truck_BT_Port_0.0 ssm_Truck_BT_Port_0.0" vType="Truck" speedFactor="1.09" vaporized="">
        <emissions CO_abs="6004.82" CO2_abs="4999921.31" HC_abs="151.14" PMx_abs="116.60" NOx_abs="32201.53" fuel_abs="1572601.23" electricity_abs="0.00"/>
    </tripinfo>
    <tripinfo id="Truck_Port_BT_0.0" depart="46.00" departLane="-133487534_0" departPos="7.20" departSpeed="0.00" departDelay="46.00" arrival="425.00" arrivalLane="E19_0" arrivalPos="61.50" arrivalSpeed="13.53" duration="379.00" routeLength="4287.65" waitingTime="2.00" waitingCount="1" stopTime="2.00" timeLoss="42.64" rerouteNo="1" devices="tripinfo_Truck_Port_BT_0.0 routing_Truck_Port_BT_0.0 emissions_Truck_Port_BT_0.0 ssm_Truck_Port_BT_0.0" vType="Truck" speedFactor="1.00" vaporized="">
        <emissions CO_abs="6555.54" CO2_abs="5395562.10" HC_abs="163.99" PMx_abs="130.06" NOx_abs="34928.64" fuel_abs="1697077.95" electricity_abs="0.00"/>
    </tripinfo>
    <tripinfo id="Trailer_Port_South_0.0" depart="27.00" departLane="-133487534_0" departPos="16.60" departSpeed="0.00" departDelay="27.00" arrival="443.00" arrivalLane="955410878.656.46_0" arrivalPos="292.09" arrivalSpeed="13.72" duration="416.00" routeLength="5060.64" waitingTime="3.00" waitingCount="2" stopTime="2.00" timeLoss="30.04" rerouteNo="1" devices="tripinfo_Trailer_Port_South_0.0 routing_Trailer_Port_South_0.0 emissions_Trailer_Port_South_0.0 ssm_Trailer_Port_South_0.0" vType="Trailer" speedFactor="0.97" vaporized="">
        <emissions CO_abs="6938.01" CO2_abs="5656950.99" HC_abs="173.76" PMx_abs="135.89" NOx_abs="36732.22" fuel_abs="1779231.54" electricity_abs="0.00"/>
    </tripinfo>
    <tripinfo id="Truck_Port_South_0.0" depart="50.00" departLane="-133487534_0" departPos="7.20" departSpeed="0.00" departDelay="50.00" arrival="487.00" arrivalLane="955410878.656.46_0" arrivalPos="292.09" arrivalSpeed="13.29" duration="437.00" routeLength="5070.04" waitingTime="2.00" waitingCount="2" stopTime="2.00" timeLoss="42.46" rerouteNo="1" devices="tripinfo_Truck_Port_South_0.0 routing_Truck_Port_South_0.0 emissions_Truck_Port_South_0.0 ssm_Truck_Port_South_0.0" vType="Truck" speedFactor="1.01" vaporized="">
        <emissions CO_abs="7366.15" CO2_abs="5963947.77" HC_abs="184.08" PMx_abs="145.08" NOx_abs="38836.85" fuel_abs="1875789.66" electricity_abs="0.00"/>
    </tripinfo>
    <tripinfo id="Car_Port_South_0.0" depart="62.00" departLane="-133487534_0" departPos="5.10" departSpeed="0.00" departDelay="62.00" arrival="518.00" arrivalLane="955410878.656.46_0" arrivalPos="292.09" arrivalSpeed="12.85" duration="456.00" routeLength="5072.14" waitingTime="3.00" waitingCount="2" stopTime="2.00" timeLoss="67.36" rerouteNo="1" devices="tripinfo_Car_Port_South_0.0 routing_Car_Port_South_0.0 emissions_Car_Port_South_0.0 ssm_Car_Port_South_0.0" vType="Car" speedFactor="1.17" vaporized="">
        <emissions CO_abs="14347.78" CO2_abs="1083059.61" HC_abs="87.48" PMx_abs="14.77" NOx_abs="402.30" fuel_abs="345450.25" electricity_abs="0.00"/>
    </tripinfo>
    <tripinfo id="Bus_Port_South_0.0" depart="83.00" departLane="-133487534_0" departPos="12.10" departSpeed="0.00" departDelay="83.00" arrival="555.00" arrivalLane="955410878.656.46_0" arrivalPos="292.09" arrivalSpeed="13.29" duration="472.00" routeLength="5065.14" waitingTime="2.00" waitingCount="2" stopTime="2.00" timeLoss="61.53" rerouteNo="1" devices="tripinfo_Bus_Port_South_0.0 routing_Bus_Port_South_0.0 emissions_Bus_Port_South_0.0 ssm_Bus_Port_South_0.0" vType="Bus" speedFactor="1.00" vaporized="">
        <emissions CO_abs="9737.99" CO2_abs="5605588.20" HC_abs="2257.07" PMx_abs="1043.91" NOx_abs="44623.48" fuel_abs="1773928.40" electricity_abs="0.00"/>
    </tripinfo>
    <tripinfo id="Truck_Port_South_0.1" depart="97.00" departLane="-133487534_0" departPos="7.20" departSpeed="0.00" departDelay="83.15" arrival="608.00" arrivalLane="955410878.656.46_0" arrivalPos="292.09" arrivalSpeed="13.47" duration="511.00" routeLength="5070.04" waitingTime="0.00" waitingCount="0" stopTime="2.00" timeLoss="117.88" rerouteNo="1" devices="tripinfo_Truck_Port_South_0.1 routing_Truck_Port_South_0.1 emissions_Truck_Port_South_0.1 ssm_Truck_Port_South_0.1" vType="Truck" speedFactor="0.99" vaporized="">
        <emissions CO_abs="7941.63" CO2_abs="6358861.31" HC_abs="197.39" PMx_abs="159.30" NOx_abs="41613.27" fuel_abs="2000035.43" electricity_abs="0.00"/>
    </tripinfo>
    <tripinfo id="Truck_Port_South_0.2" depart="108.00" departLane="-133487534_0" departPos="7.20" departSpeed="0.00" departDelay="80.31" arrival="627.00" arrivalLane="955410878.656.46_0" arrivalPos="292.09" arrivalSpeed="13.38" duration="519.00" routeLength="5070.04" waitingTime="3.00" waitingCount="2" stopTime="2.00" timeLoss="117.33" rerouteNo="1" devices="tripinfo_Truck_Port_South_0.2 routing_Truck_Port_South_0.2 emissions_Truck_Port_South_0.2 ssm_Truck_Port_South_0.2" vType="Truck" speedFactor="1.00" vaporized="">
        <emissions CO_abs="8084.23" CO2_abs="6407416.71" HC_abs="200.45" PMx_abs="162.84" NOx_abs="42101.83" fuel_abs="2015296.38" electricity_abs="0.00"/>
    </tripinfo>
    <tripinfo id="Truck_Port_South_0.5" depart="165.00" departLane="-133487534_0" departPos="7.20" departSpeed="0.00" departDelay="95.77" arrival="643.00" arrivalLane="955410878.656.46_0" arrivalPos="292.09" arrivalSpeed="13.80" duration="478.00" routeLength="5070.04" waitingTime="9.00" waitingCount="2" stopTime="2.00" timeLoss="88.37" rerouteNo="1" devices="tripinfo_Truck_Port_South_0.5 routing_Truck_Port_South_0.5 emissions_Truck_Port_South_0.5 ssm_Truck_Port_South_0.5" vType="Truck" speedFactor="1.08" vaporized="">
        <emissions CO_abs="7934.71" CO2_abs="6443537.96" HC_abs="197.91" PMx_abs="158.10" NOx_abs="41931.21" fuel_abs="2026680.70" electricity_abs="0.00"/>
    </tripinfo>
    <tripinfo id="Trailer_BT_Port_0.1" depart="301.00" departLane="-E19_0" departPos="16.60" departSpeed="0.00" departDelay="129.57" arrival="645.00" arrivalLane="133487534_0" arrivalPos="588.58" arrivalSpeed="13.66" duration="344.00" routeLength="4335.31" waitingTime="0.00" waitingCount="0" stopTime="2.00" timeLoss="21.56" rerouteNo="1" devices="tripinfo_Trailer_BT_Port_0.1 routing_Trailer_BT_Port_0.1 emissions_Trailer_BT_Port_0.1 ssm_Trailer_BT_Port_0.1" vType="Trailer" speedFactor="1.06" vaporized="">
        <emissions CO_abs="5845.37" CO2_abs="4845416.55" HC_abs="147.01" PMx_abs="113.56" NOx_abs="31259.03" fuel_abs="1523997.99" electricity_abs="0.00"/>
    </tripinfo>
    <tripinfo id="Truck_BT_Port_0.1" depart="306.00" departLane="-E19_0" departPos="7.20" departSpeed="0.00" departDelay="134.57" arrival="655.00" arrivalLane="133487534_0" arrivalPos="588.58" arrivalSpeed="13.45" duration="349.00" routeLength="4339.57" waitingTime="0.00" waitingCount="0" stopTime="2.00" timeLoss="24.36" rerouteNo="1" devices="tripinfo_Truck_BT_Port_0.1 routing_Truck_BT_Port_0.1 emissions_Truck_BT_Port_0.1 ssm_Truck_BT_Port_0.1" vType="Truck" speedFactor="1.01" vaporized="">
        <emissions CO_abs="6084.21" CO2_abs="5059252.27" HC_abs="153.04" PMx_abs="118.41" NOx_abs="32602.64" fuel_abs="1591265.74" electricity_abs="0.00"/>
    </tripinfo>
    <tripinfo id="Truck_Port_South_0.6" depart="177.00" departLane="-133487534_0" departPos="7.20" departSpeed="0.00" departDelay="93.92" arrival="663.00" arrivalLane="955410878.656.46_0" arrivalPos="292.09" arrivalSpeed="13.73" duration="486.00" routeLength="5070.04" waitingTime="17.00" waitingCount="2" stopTime="2.00" timeLoss="92.72" rerouteNo="1" devices="tripinfo_Truck_Port_South_0.6 routing_Truck_Port_South_0.6 emissions_Truck_Port_South_0.6 ssm_Truck_Port_South_0.6" vType="Truck" speedFactor="0.97" vaporized="">
        <emissions CO_abs="8078.70" CO2_abs="6486207.23" HC_abs="200.97" PMx_abs="161.71" NOx_abs="42399.22" fuel_abs="2040088.57" electricity_abs="0.00"/>
    </tripinfo>
    <tripinfo id="Truck_Port_South_0.3" depart="126.00" departLane="-133487534_0" departPos="7.20" departSpeed="0.00" departDelay="84.46" arrival="668.00" arrivalLane="955410878.656.46_0" arrivalPos="292.09" arrivalSpeed="13.27" duration="542.00" routeLength="5070.04" waitingTime="16.00" waitingCount="6" stopTime="2.00" timeLoss="135.03" rerouteNo="1" devices="tripinfo_Truck_Port_South_0.3 routing_Truck_Port_South_0.3 emissions_Truck_Port_South_0.3 ssm_Truck_Port_South_0.3" vType="Truck" speedFactor="1.05" vaporized="">
        <emissions CO_abs="8532.26" CO2_abs="6670302.89" HC_abs="210.68" PMx_abs="173.63" NOx_abs="44080.04" fuel_abs="2097983.70" electricity_abs="0.00"/>
    </tripinfo>
    <tripinfo id="Truck_Port_South_0.7" depart="194.00" departLane="-133487534_0" departPos="7.20" departSpeed="0.00" departDelay="97.08" arrival="697.00" arrivalLane="955410878.656.46_0" arrivalPos="292.09" arrivalSpeed="13.58" duration="503.00" routeLength="5070.04" waitingTime="32.00" waitingCount="7" stopTime="2.00" timeLoss="103.08" rerouteNo="1" devices="tripinfo_Truck_Port_South_0.7 routing_Truck_Port_South_0.7 emissions_Truck_Port_South_0.7 ssm_Truck_Port_South_0.7" vType="Truck" speedFactor="1.00" vaporized="">
        <emissions CO_abs="8294.82" CO2_abs="6581663.70" HC_abs="205.53" PMx_abs="167.76" NOx_abs="43235.19" fuel_abs="2070119.91" electricity_abs="0.00"/>
    </tripinfo>
    <tripinfo id="Car_Port_South_0.1" depart="139.00" departLane="-133487534_0" departPos="5.10" departSpeed="0.00" departDelay="83.62" arrival="712.00" arrivalLane="955410878.656.46_0" arrivalPos="292.09" arrivalSpeed="13.54" duration="573.00" routeLength="5072.14" waitingTime="27.00" waitingCount="11" stopTime="2.00" timeLoss="172.03" rerouteNo="1" devices="tripinfo_Car_Port_South_0.1 routing_Car_Port_South_0.1 emissions_Car_Port_South_0.1 ssm_Car_Port_South_0.1" vType="Car" speedFactor="0.93" vaporized="">
        <emissions CO_abs="27134.15" CO2_abs="1316702.20" HC_abs="152.35" PMx_abs="20.74" NOx_abs="515.87" fuel_abs="419974.98" electricity_abs="0.00"/>
    </tripinfo>
    <tripinfo id="Car_Port_South_0.2" depart="223.00" departLane="-133487534_0" departPos="5.10" departSpeed="0.00" departDelay="112.23" arrival="737.00" arrivalLane="955410878.656.46_0" arrivalPos="292.09" arrivalSpeed="12.60" duration="514.00" routeLength="5072.14" waitingTime="30.00" waitingCount="9" stopTime="2.00" timeLoss="119.19" rerouteNo="1" devices="tripinfo_Car_Port_South_0.2 routing_Car_Port_South_0.2 emissions_Car_Port_South_0.2 ssm_Car_Port_South_0.2" vType="Car" speedFactor="0.94" vaporized="">
        <emissions CO_abs="23406.08" CO2_abs="1253155.81" HC_abs="133.70" PMx_abs="19.35" NOx_abs="485.27" fuel_abs="399705.34" electricity_abs="0.00"/>
    </tripinfo>
    <tripinfo id="Bus_Port_South_0.1" depart="150.00" departLane="-133487534_0" departPos="12.10" departSpeed="0.00" departDelay="94.62" arrival="747.00" arrivalLane="955410878.656.46_0" arrivalPos="292.09" arrivalSpeed="13.49" duration="597.00" routeLength="5065.14" waitingTime="42.00" waitingCount="12" stopTime="2.00" timeLoss="175.53" rerouteNo="1" devices="tripinfo_Bus_Port_South_0.1 routing_Bus_Port_South_0.1 emissions_Bus_Port_South_0.1 ssm_Bus_Port_South_0.1" vType="Bus" speedFactor="1.00" vaporized="">
        <emissions CO_abs="12104.91" CO2_abs="6448596.08" HC_abs="2783.08" PMx_abs="1282.45" NOx_abs="52913.72" fuel_abs="2040534.27" electricity_abs="0.00"/>
    </tripinfo>
    <tripinfo id="Truck_Port_South_0.4" depart="135.00" departLane="-133487534_0" departPos="7.20" departSpeed="0.00" departDelay="79.62" arrival="775.00" arrivalLane="955410878.656.46_0" arrivalPos="292.09" arrivalSpeed="13.64" duration="640.00" routeLength="5070.04" waitingTime="34.00" waitingCount="13" stopTime="2.00" timeLoss="204.48" rerouteNo="1" devices="tripinfo_Truck_Port_South_0.4 routing_Truck_Port_South_0.4 emissions_Truck_Port_South_0.4 ssm_Truck_Port_South_0.4" vType="Truck" speedFactor="0.98" vaporized="">
        <emissions CO_abs="9666.02" CO2_abs="7239636.56" HC_abs="235.77" PMx_abs="202.20" NOx_abs="48710.80" fuel_abs="2277050.95" electricity_abs="0.00"/>
    </tripinfo>
    <tripinfo id="Trailer_BT_N1_0.0" depart="0.00" departLane="-E19_0" departPos="16.60" departSpeed="0.00" departDelay="0.00" arrival="778.00" arrivalLane="955410838#0_0" arrivalPos="450.22" arrivalSpeed="13.68" duration="778.00" routeLength="9955.24" waitingTime="0.00" waitingCount="0" stopTime="0.00" timeLoss="36.00" rerouteNo="1" devices="tripinfo_Trailer_BT_N1_0.0 routing_Trailer_BT_N1_0.0 emissions_Trailer_BT_N1_0.0 ssm_Trailer_BT_N1_0.0" vType="Trailer" speedFactor="0.93" vaporized="">
        <emissions CO_abs="12506.11" CO2_abs="10309405.44" HC_abs="314.53" PMx_abs="241.92" NOx_abs="66635.70" fuel_abs="3242504.38" electricity_abs="0.00"/>
    </tripinfo>
    <tripinfo id="Trailer_N1_BT_0.0" depart="0.00" departLane="802491129#1_0" departPos="16.60" departSpeed="0.00" departDelay="0.00" arrival="794.00" arrivalLane="E19_0" arrivalPos="61.50" arrivalSpeed="11.80" duration="794.00" routeLength="10293.43" waitingTime="0.00" waitingCount="0" stopTime="0.00" timeLoss="38.21" rerouteNo="1" devices="tripinfo_Trailer_N1_BT_0.0 routing_Trailer_N1_BT_0.0 emissions_Trailer_N1_BT_0.0 ssm_Trailer_N1_BT_0.0" vType="Trailer" speedFactor="1.03" vaporized="">
        <emissions CO_abs="13089.25" CO2_abs="10900949.28" HC_abs="329.83" PMx_abs="252.74" NOx_abs="70186.72" fuel_abs="3428591.51" electricity_abs="0.00"/>
    </tripinfo>
    <tripinfo id="Truck_BT_N1_0.0" depart="26.00" departLane="-E19_0" departPos="7.20" departSpeed="0.00" departDelay="26.00" arrival="796.00" arrivalLane="955410838#0_0" arrivalPos="450.22" arrivalSpeed="13.49" duration="770.00" routeLength="9969.44" waitingTime="0.00" waitingCount="0" stopTime="0.00" timeLoss="36.71" rerouteNo="1" devices="tripinfo_Truck_BT_N1_0.0 routing_Truck_BT_N1_0.0 emissions_Truck_BT_N1_0.0 ssm_Truck_BT_N1_0.0" vType="Truck" speedFactor="0.97" vaporized="">
        <emissions CO_abs="12816.81" CO2_abs="10618424.88" HC_abs="322.73" PMx_abs="247.36" NOx_abs="68499.43" fuel_abs="3339705.73" electricity_abs="0.00"/>
    </tripinfo>
    <tripinfo id="Trailer_BT_N1_2.0" depart="14.00" departLane="-E19_0" departPos="16.60" departSpeed="0.00" departDelay="14.00" arrival="798.00" arrivalLane="653007172#3.272.179.161_0" arrivalPos="2293.28" arrivalSpeed="13.67" duration="784.00" routeLength="10370.88" waitingTime="0.00" waitingCount="0" stopTime="0.00" timeLoss="27.46" rerouteNo="1" devices="tripinfo_Trailer_BT_N1_2.0 routing_Trailer_BT_N1_2.0 emissions_Trailer_BT_N1_2.0 ssm_Trailer_BT_N1_2.0" vType="Trailer" speedFactor="1.01" vaporized="">
        <emissions CO_abs="12510.61" CO2_abs="10336809.46" HC_abs="315.20" PMx_abs="240.28" NOx_abs="66737.72" fuel_abs="3251093.53" electricity_abs="0.00"/>
    </tripinfo>
    <tripinfo id="Truck_Port_South_0.14" depart="339.00" departLane="-133487534_0" departPos="7.20" departSpeed="0.00" departDelay="145.16" arrival="799.00" arrivalLane="955410878.656.46_0" arrivalPos="292.09" arrivalSpeed="13.57" duration="460.00" routeLength="5070.04" waitingTime="34.00" waitingCount="9" stopTime="2.00" timeLoss="68.05" rerouteNo="1" devices="tripinfo_Truck_Port_South_0.14 routing_Truck_Port_South_0.14 emissions_Truck_Port_South_0.14 ssm_Truck_Port_South_0.14" vType="Truck" speedFactor="1.07" vaporized="">
        <emissions CO_abs="7775.91" CO2_abs="6158675.43" HC_abs="193.11" PMx_abs="155.38" NOx_abs="40465.52" fuel_abs="1937030.39" electricity_abs="0.00"/>
    </tripinfo>
    <tripinfo id="Car_BT_N1_0.0" depart="42.00" departLane="-E19_0" departPos="5.10" departSpeed="0.00" departDelay="42.00" arrival="817.00" arrivalLane="955410838#0_0" arrivalPos="450.22" arrivalSpeed="13.65" duration="775.00" routeLength="9971.54" waitingTime="0.00" waitingCount="0" stopTime="0.00" timeLoss="47.47" rerouteNo="1" devices="tripinfo_Car_BT_N1_0.0 routing_Car_BT_N1_0.0 emissions_Car_BT_N1_0.0 ssm_Car_BT_N1_0.0" vType="Car" speedFactor="1.09" vaporized="">
        <emissions CO_abs="13539.25" CO2_abs="1822324.41" HC_abs="97.91" PMx_abs="22.14" NOx_abs="655.29" fuel_abs="581240.98" electricity_abs="0.00"/>
    </tripinfo>
    <tripinfo id="Bus_BT_N1_0.0" depart="52.00" departLane="-E19_0" departPos="12.10" departSpeed="0.00" departDelay="52.00" arrival="817.00" arrivalLane="955410838#0_1" arrivalPos="450.22" arrivalSpeed="13.50" duration="765.00" routeLength="9964.52" waitingTime="0.00" waitingCount="0" stopTime="0.00" timeLoss="35.66" rerouteNo="1" devices="tripinfo_Bus_BT_N1_0.0 routing_Bus_BT_N1_0.0 emissions_Bus_BT_N1_0.0 ssm_Bus_BT_N1_0.0" vType="Bus" speedFactor="1.00" vaporized="">
        <emissions CO_abs="15894.22" CO2_abs="9759814.33" HC_abs="3750.72" PMx_abs="1724.31" NOx_abs="75787.44" fuel_abs="3088794.22" electricity_abs="0.00"/>
    </tripinfo>
    <tripinfo id="Trailer_N1_BT_1.0" depart="0.00" departLane="409623411_0" departPos="16.60" departSpeed="0.00" departDelay="0.00" arrival="821.00" arrivalLane="E19_0" arrivalPos="61.50" arrivalSpeed="12.27" duration="821.00" routeLength="10507.77" waitingTime="0.00" waitingCount="0" stopTime="0.00" timeLoss="43.69" rerouteNo="1" devices="tripinfo_Trailer_N1_BT_1.0 routing_Trailer_N1_BT_1.0 emissions_Trailer_N1_BT_1.0 ssm_Trailer_N1_BT_1.0" vType="Trailer" speedFactor="0.97" vaporized="">
        <emissions CO_abs="13556.08" CO2_abs="11257093.68" HC_abs="341.31" PMx_abs="262.25" NOx_abs="72562.88" fuel_abs="3540604.76" electricity_abs="0.00"/>
    </tripinfo>
    <tripinfo id="Truck_BT_N1_2.0" depart="34.00" departLane="-E19_0" departPos="7.20" departSpeed="0.00" departDelay="34.00" arrival="827.00" arrivalLane="653007172#3.272.179.161_0" arrivalPos="2293.28" arrivalSpeed="13.48" duration="793.00" routeLength="10380.28" waitingTime="0.00" waitingCount="0" stopTime="0.00" timeLoss="30.85" rerouteNo="1" devices="tripinfo_Truck_BT_N1_2.0 routing_Truck_BT_N1_2.0 emissions_Truck_BT_N1_2.0 ssm_Truck_BT_N1_2.0" vType="Truck" speedFactor="0.97" vaporized="">
        <emissions CO_abs="13022.20" CO2_abs="10744435.78" HC_abs="327.82" PMx_abs="250.85" NOx_abs="69413.48" fuel_abs="3379309.46" electricity_abs="0.00"/>
    </tripinfo>
    <tripinfo id="Truck_N1_BT_0.0" depart="19.00" departLane="802491129#1_0" departPos="7.20" departSpeed="0.00" departDelay="19.00" arrival="828.00" arrivalLane="E19_0" arrivalPos="61.50" arrivalSpeed="12.16" duration="809.00" routeLength="10298.48" waitingTime="0.00" waitingCount="0" stopTime="0.00" timeLoss="44.98" rerouteNo="1" devices="tripinfo_Truck_N1_BT_0.0 routing_Truck_N1_BT_0.0 emissions_Truck_N1_BT_0.0 ssm_Truck_N1_BT_0.0" vType="Truck" speedFactor="0.97" vaporized="">
        <emissions CO_abs="13559.32" CO2_abs="11289611.05" HC_abs="341.51" PMx_abs="262.39" NOx_abs="72701.81" fuel_abs="3550846.31" electricity_abs="0.00"/>
    </tripinfo>
    <tripinfo id="Trailer_Port_South_0.2" depart="378.00" departLane="-133487534_0" departPos="16.60" departSpeed="0.00" departDelay="159.82" arrival="829.00" arrivalLane="955410878.656.46_0" arrivalPos="292.09" arrivalSpeed="13.58" duration="451.00" routeLength="5060.64" waitingTime="28.00" waitingCount="7" stopTime="2.00" timeLoss="61.02" rerouteNo="1" devices="tripinfo_Trailer_Port_South_0.2 routing_Trailer_Port_South_0.2 emissions_Trailer_Port_South_0.2 ssm_Trailer_Port_South_0.2" vType="Trailer" speedFactor="0.94" vaporized="">
        <emissions CO_abs="7537.49" CO2_abs="5963354.18" HC_abs="187.22" PMx_abs="150.36" NOx_abs="39195.86" fuel_abs="1875589.22" electricity_abs="0.00"/>
    </tripinfo>
    <tripinfo id="Truck_N1_BT_1.0" depart="19.00" departLane="409623411_0" departPos="7.20" departSpeed="0.00" departDelay="19.00" arrival="846.00" arrivalLane="E19_0" arrivalPos="61.50" arrivalSpeed="12.36" duration="827.00" routeLength="10517.17" waitingTime="0.00" waitingCount="0" stopTime="0.00" timeLoss="56.23" rerouteNo="1" devices="tripinfo_Truck_N1_BT_1.0 routing_Truck_N1_BT_1.0 emissions_Truck_N1_BT_1.0 ssm_Truck_N1_BT_1.0" vType="Truck" speedFactor="1.08" vaporized="">
        <emissions CO_abs="14047.07" CO2_abs="11670860.71" HC_abs="353.64" PMx_abs="271.99" NOx_abs="75217.99" fuel_abs="3670751.60" electricity_abs="0.00"/>
    </tripinfo>
    <tripinfo id="Bus_BT_N1_2.0" depart="64.00" departLane="-E19_0" departPos="12.10" departSpeed="0.00" departDelay="64.00" arrival="851.00" arrivalLane="653007172#3.272.179.161_0" arrivalPos="2293.28" arrivalSpeed="13.48" duration="787.00" routeLength="10375.38" waitingTime="0.00" waitingCount="0" stopTime="0.00" timeLoss="29.64" rerouteNo="1" devices="tripinfo_Bus_BT_N1_2.0 routing_Bus_BT_N1_2.0 emissions_Bus_BT_N1_2.0 ssm_Bus_BT_N1_2.0" vType="Bus" speedFactor="1.00" vaporized="">
        <emissions CO_abs="16055.74" CO2_abs="9788385.89" HC_abs="3840.15" PMx_abs="1743.26" NOx_abs="76142.71" fuel_abs="3097857.79" electricity_abs="0.00"/>
    </tripinfo>
    <tripinfo id="Car_N1_BT_0.0" depart="32.00" departLane="802491129#1_0" departPos="5.10" departSpeed="0.00" departDelay="32.00" arrival="855.00" arrivalLane="E19_0" arrivalPos="61.50" arrivalSpeed="12.28" duration="823.00" routeLength="10305.72" waitingTime="0.00" waitingCount="0" stopTime="0.00" timeLoss="59.53" rerouteNo="1" devices="tripinfo_Car_N1_BT_0.0 routing_Car_N1_BT_0.0 emissions_Car_N1_BT_0.0 ssm_Car_N1_BT_0.0" vType="Car" speedFactor="0.97" vaporized="">
        <emissions CO_abs="16148.08" CO2_abs="1938625.39" HC_abs="113.33" PMx_abs="24.32" NOx_abs="705.66" fuel_abs="618336.05" electricity_abs="0.00"/>
    </tripinfo>
    <tripinfo id="Truck_Port_South_0.8" depart="219.00" departLane="-133487534_0" departPos="7.20" departSpeed="0.00" departDelay="108.23" arrival="858.00" arrivalLane="955410878.656.46_0" arrivalPos="292.09" arrivalSpeed="13.59" duration="639.00" routeLength="5070.04" waitingTime="37.00" waitingCount="11" stopTime="2.00" timeLoss="200.50" rerouteNo="1" devices="tripinfo_Truck_Port_South_0.8 routing_Truck_Port_South_0.8 emissions_Truck_Port_South_0.8 ssm_Truck_Port_South_0.8" vType="Truck" speedFactor="0.99" vaporized="">
        <emissions CO_abs="9983.71" CO2_abs="7380365.28" HC_abs="242.84" PMx_abs="209.71" NOx_abs="49927.14" fuel_abs="2321293.93" electricity_abs="0.00"/>
    </tripinfo>
    <tripinfo id="Bus_N1_BT_0.0" depart="42.00" departLane="802491129#1_0" departPos="12.10" departSpeed="0.00" departDelay="42.00" arrival="864.00" arrivalLane="E19_0" arrivalPos="61.50" arrivalSpeed="12.12" duration="822.00" routeLength="10298.72" waitingTime="0.00" waitingCount="0" stopTime="0.00" timeLoss="64.25" rerouteNo="1" devices="tripinfo_Bus_N1_BT_0.0 routing_Bus_N1_BT_0.0 emissions_Bus_N1_BT_0.0 ssm_Bus_N1_BT_0.0" vType="Bus" speedFactor="1.00" vaporized="">
        <emissions CO_abs="17511.45" CO2_abs="11023196.38" HC_abs="3929.65" PMx_abs="1893.87" NOx_abs="85094.88" fuel_abs="3488544.30" electricity_abs="0.00"/>
    </tripinfo>
    <tripinfo id="Trailer_N1_South_0.0" depart="14.00" departLane="802491129#1_0" departPos="16.60" departSpeed="0.00" departDelay="14.00" arrival="866.00" arrivalLane="955410878.656.46_0" arrivalPos="292.09" arrivalSpeed="13.60" duration="852.00" routeLength="11082.93" waitingTime="0.00" waitingCount="0" stopTime="0.00" timeLoss="38.88" rerouteNo="1" devices="tripinfo_Trailer_N1_South_0.0 routing_Trailer_N1_South_0.0 emissions_Trailer_N1_South_0.0 ssm_Trailer_N1_South_0.0" vType="Trailer" speedFactor="1.02" vaporized="">
        <emissions CO_abs="13936.38" CO2_abs="11562142.45" HC_abs="351.06" PMx_abs="268.76" NOx_abs="74546.25" fuel_abs="3636525.45" electricity_abs="0.00"/>
    </tripinfo>
    <tripinfo id="Car_BT_N1_2.0" depart="48.00" departLane="-E19_0" departPos="5.10" departSpeed="0.00" departDelay="48.00" arrival="870.00" arrivalLane="653007172#3.272.179.161_0" arrivalPos="2293.28" arrivalSpeed="13.87" duration="822.00" routeLength="10382.38" waitingTime="0.00" waitingCount="0" stopTime="0.00" timeLoss="46.76" rerouteNo="1" devices="tripinfo_Car_BT_N1_2.0 routing_Car_BT_N1_2.0 emissions_Car_BT_N1_2.0 ssm_Car_BT_N1_2.0" vType="Car" speedFactor="0.90" vaporized="">
        <emissions CO_abs="14023.13" CO2_abs="1871398.40" HC_abs="101.61" PMx_abs="22.34" NOx_abs="670.62" fuel_abs="596894.06" electricity_abs="0.00"/>
    </tripinfo>
    <tripinfo id="Trailer_BT_Port_0.2" depart="543.00" departLane="-E19_0" departPos="16.60" departSpeed="0.00" departDelay="200.14" arrival="889.00" arrivalLane="133487534_0" arrivalPos="588.58" arrivalSpeed="13.61" duration="346.00" routeLength="4335.31" waitingTime="0.00" waitingCount="0" stopTime="2.00" timeLoss="23.44" rerouteNo="1" devices="tripinfo_Trailer_BT_Port_0.2 routing_Trailer_BT_Port_0.2 emissions_Trailer_BT_Port_0.2 ssm_Trailer_BT_Port_0.2" vType="Trailer" speedFactor="1.02" vaporized="">
        <emissions CO_abs="5944.89" CO2_abs="4930329.29" HC_abs="149.48" PMx_abs="115.67" NOx_abs="31802.88" fuel_abs="1550710.17" electricity_abs="0.00"/>
    </tripinfo>
    <tripinfo id="Truck_Port_South_0.9" depart="255.00" departLane="-133487534_0" departPos="7.20" departSpeed="0.00" departDelay="130.39" arrival="895.00" arrivalLane="955410878.656.46_0" arrivalPos="292.09" arrivalSpeed="13.47" duration="640.00" routeLength="5070.04" waitingTime="24.00" waitingCount="6" stopTime="2.00" timeLoss="197.02" rerouteNo="1" devices="tripinfo_Truck_Port_South_0.9 routing_Truck_Port_South_0.9 emissions_Truck_Port_South_0.9 ssm_Truck_Port_South_0.9" vType="Truck" speedFactor="1.01" vaporized="">
        <emissions CO_abs="9931.54" CO2_abs="7230273.15" HC_abs="240.85" PMx_abs="209.40" NOx_abs="49222.88" fuel_abs="2274058.75" electricity_abs="0.00"/>
    </tripinfo>
    <tripinfo id="Bus_N1_BT_1.0" depart="43.00" departLane="409623411_0" departPos="12.10" departSpeed="0.00" departDelay="43.00" arrival="897.00" arrivalLane="E19_0" arrivalPos="61.50" arrivalSpeed="12.46" duration="854.00" routeLength="10512.82" waitingTime="7.00" waitingCount="2" stopTime="0.00" timeLoss="80.91" rerouteNo="1" devices="tripinfo_Bus_N1_BT_1.0 routing_Bus_N1_BT_1.0 emissions_Bus_N1_BT_1.0 ssm_Bus_N1_BT_1.0" vType="Bus" speedFactor="1.00" vaporized="">
        <emissions CO_abs="18131.39" CO2_abs="10939926.36" HC_abs="4255.45" PMx_abs="1960.40" NOx_abs="85520.50" fuel_abs="3462206.70" electricity_abs="0.00"/>
    </tripinfo>