<?xml version="1.0" encoding="UTF-8"?>

<!-- generated on 2026-06-16T05:06:32.522439+00:00 by Eclipse SUMO GUI 1.26.0
<sumoConfiguration xmlns:xsi="http://www.w3.org/2001/XMLSchema-instance" xsi:noNamespaceSchemaLocation="http://sumo.dlr.de/xsd/sumoConfiguration.xsd">

    <input>
        <net-file value="C:\Users\15102\OneDrive - Imperial College London\Course Materials_Semester 3\CIVE70109_Group Design Project\Sumo File\Final Design\Do-nothing\Do-nothing.net.xml"/>
        <route-files value="C:\Users\15102\OneDrive - Imperial College London\Course Materials_Semester 3\CIVE70109_Group Design Project\Sumo File\Final Design\Do-nothing\Do-nothing.rou.xml"/>
        <additional-files value="C:\Users\15102\OneDrive - Imperial College London\Course Materials_Semester 3\CIVE70109_Group Design Project\Sumo File\Final Design\Do-nothing\TollPlaza.add.xml"/>
        <junction-taz value="true"/>
    </input>

    <output>
        <emission-output value="C:\Users\15102\OneDrive - Imperial College London\Course Materials_Semester 3\CIVE70109_Group Design Project\Sumo File\Final Design\Do-nothing\Output/Emissions.xml.gz"/>
        <tripinfo-output value="C:\Users\15102\OneDrive - Imperial College London\Course Materials_Semester 3\CIVE70109_Group Design Project\Sumo File\Final Design\Do-nothing\Output/Tripinfo.xml"/>
    </output>

    <processing>
        <ignore-junction-blocker value="5"/>
        <ignore-route-errors value="true"/>
        <time-to-teleport value="-1"/>
    </processing>

    <ssm_device>
        <device.ssm.probability value="1"/>
        <device.ssm.measures value="TTC PET DRAC"/>
        <device.ssm.file value="Output/SSM.xml"/>
    </ssm_device>

</sumoConfiguration>
-->

<tripinfos xmlns:xsi="http://www.w3.org/2001/XMLSchema-instance" xsi:noNamespaceSchemaLocation="http://sumo.dlr.de/xsd/tripinfo_file.xsd">
    <tripinfo id="Trailer_BTJ_Port.0" depart="20.00" departLane="-E19_0" departPos="16.60" departSpeed="0.00" departDelay="20.00" arrival="368.00" arrivalLane="133487534_0" arrivalPos="583.29" arrivalSpeed="13.59" duration="348.00" routeLength="4330.00" waitingTime="0.00" waitingCount="0" stopTime="2.00" timeLoss="25.64" rerouteNo="0" devices="tripinfo_Trailer_BTJ_Port.0 emissions_Trailer_BTJ_Port.0 ssm_Trailer_BTJ_Port.0" vType="Trailer" speedFactor="1.06" vaporized="">
        <emissions CO_abs="6086.70" CO2_abs="5070851.63" HC_abs="153.10" PMx_abs="118.64" NOx_abs="32656.39" fuel_abs="1594921.99" electricity_abs="0.00"/>
    </tripinfo>
    <tripinfo id="Trailer_Port_BTJ.0" depart="28.00" departLane="-133487534_0" departPos="16.60" departSpeed="0.00" departDelay="28.00" arrival="386.00" arrivalLane="E19_0" arrivalPos="61.50" arrivalSpeed="12.31" duration="358.00" routeLength="4272.31" waitingTime="1.00" waitingCount="1" stopTime="2.00" timeLoss="30.88" rerouteNo="0" devices="tripinfo_Trailer_Port_BTJ.0 emissions_Trailer_Port_BTJ.0 ssm_Trailer_Port_BTJ.0" vType="Trailer" speedFactor="1.00" vaporized="">
        <emissions CO_abs="6110.53" CO2_abs="5044145.92" HC_abs="153.22" PMx_abs="120.12" NOx_abs="32606.31" fuel_abs="1586526.88" electricity_abs="0.00"/>
    </tripinfo>
    <tripinfo id="Truck_BTJ_Port.0" depart="39.00" departLane="-E19_0" departPos="7.20" departSpeed="0.00" departDelay="39.00" arrival="389.00" arrivalLane="133487534_0" arrivalPos="583.29" arrivalSpeed="13.63" duration="350.00" routeLength="4339.40" waitingTime="0.00" waitingCount="0" stopTime="2.00" timeLoss="27.37" rerouteNo="0" devices="tripinfo_Truck_BTJ_Port.0 emissions_Truck_BTJ_Port.0 ssm_Truck_BTJ_Port.0" vType="Truck" speedFactor="1.07" vaporized="">
        <emissions CO_abs="6218.34" CO2_abs="5211879.23" HC_abs="156.58" PMx_abs="121.12" NOx_abs="33488.74" fuel_abs="1639289.88" electricity_abs="0.00"/>
    </tripinfo>
    <tripinfo id="Trailer_Port_South.0" depart="21.00" departLane="-133487534_0" departPos="16.60" departSpeed="0.00" departDelay="21.00" arrival="431.00" arrivalLane="955410878.656.46_0" arrivalPos="292.09" arrivalSpeed="13.65" duration="410.00" routeLength="5058.18" waitingTime="2.00" waitingCount="1" stopTime="2.00" timeLoss="28.34" rerouteNo="0" devices="tripinfo_Trailer_Port_South.0 emissions_Trailer_Port_South.0 ssm_Trailer_Port_South.0" vType="Trailer" speedFactor="1.02" vaporized="">
        <emissions CO_abs="6817.84" CO2_abs="5628435.85" HC_abs="171.21" PMx_abs="133.03" NOx_abs="36371.92" fuel_abs="1770279.80" electricity_abs="0.00"/>
    </tripinfo>
    <tripinfo id="Truck_Port_BTJ.0" depart="52.00" departLane="-133487534_0" departPos="7.20" departSpeed="0.00" departDelay="52.00" arrival="432.00" arrivalLane="E19_0" arrivalPos="61.50" arrivalSpeed="12.76" duration="380.00" routeLength="4281.71" waitingTime="3.00" waitingCount="2" stopTime="2.00" timeLoss="43.47" rerouteNo="0" devices="tripinfo_Truck_Port_BTJ.0 emissions_Truck_Port_BTJ.0 ssm_Truck_Port_BTJ.0" vType="Truck" speedFactor="0.97" vaporized="">
        <emissions CO_abs="6585.40" CO2_abs="5369007.47" HC_abs="164.57" PMx_abs="130.37" NOx_abs="34877.91" fuel_abs="1688698.80" electricity_abs="0.00"/>
    </tripinfo>
    <tripinfo id="Truck_Port_South.0" depart="48.00" departLane="-133487534_0" departPos="7.20" departSpeed="0.00" departDelay="48.00" arrival="477.00" arrivalLane="955410878.656.46_0" arrivalPos="292.09" arrivalSpeed="13.63" duration="429.00" routeLength="5067.58" waitingTime="1.00" waitingCount="1" stopTime="2.00" timeLoss="39.58" rerouteNo="0" devices="tripinfo_Truck_Port_South.0 emissions_Truck_Port_South.0 ssm_Truck_Port_South.0" vType="Truck" speedFactor="1.01" vaporized="">
        <emissions CO_abs="7249.87" CO2_abs="5916892.71" HC_abs="181.48" PMx_abs="142.45" NOx_abs="38410.93" fuel_abs="1861001.49" electricity_abs="0.00"/>
    </tripinfo>
    <tripinfo id="Car_Port_South.0" depart="65.00" departLane="-133487534_0" departPos="5.10" departSpeed="0.00" departDelay="65.00" arrival="520.00" arrivalLane="955410878.656.46_0" arrivalPos="292.09" arrivalSpeed="12.81" duration="455.00" routeLength="5069.68" waitingTime="3.00" waitingCount="2" stopTime="2.00" timeLoss="64.16" rerouteNo="0" devices="tripinfo_Car_Port_South.0 emissions_Car_Port_South.0 ssm_Car_Port_South.0" vType="Car" speedFactor="0.97" vaporized="">
        <emissions CO_abs="13768.32" CO2_abs="1062256.11" HC_abs="84.66" PMx_abs="14.60" NOx_abs="395.54" fuel_abs="338814.49" electricity_abs="0.00"/>
    </tripinfo>
    <tripinfo id="Bus_Port_South.0" depart="87.00" departLane="-133487534_0" departPos="12.10" departSpeed="0.00" departDelay="87.00" arrival="558.00" arrivalLane="955410878.656.46_0" arrivalPos="292.09" arrivalSpeed="13.44" duration="471.00" routeLength="5062.68" waitingTime="4.00" waitingCount="3" stopTime="2.00" timeLoss="62.94" rerouteNo="0" devices="tripinfo_Bus_Port_South.0 emissions_Bus_Port_South.0 ssm_Bus_Port_South.0" vType="Bus" speedFactor="1.00" vaporized="">
        <emissions CO_abs="9834.64" CO2_abs="5643102.84" HC_abs="2290.64" PMx_abs="1054.51" NOx_abs="44962.36" fuel_abs="1785803.63" electricity_abs="0.00"/>
    </tripinfo>
    <tripinfo id="Truck_BTJ_Port.1" depart="302.00" departLane="-E19_0" departPos="7.20" departSpeed="0.00" departDelay="130.57" arrival="648.00" arrivalLane="133487534_0" arrivalPos="583.29" arrivalSpeed="13.70" duration="346.00" routeLength="4339.40" waitingTime="0.00" waitingCount="0" stopTime="2.00" timeLoss="23.46" rerouteNo="0" devices="tripinfo_Truck_BTJ_Port.1 emissions_Truck_BTJ_Port.1 ssm_Truck_BTJ_Port.1" vType="Truck" speedFactor="1.07" vaporized="">
        <emissions CO_abs="6138.99" CO2_abs="5167129.81" HC_abs="154.74" PMx_abs="119.35" NOx_abs="33147.15" fuel_abs="1625218.46" electricity_abs="0.00"/>
    </tripinfo>
    <tripinfo id="Trailer_BTJ_Port.1" depart="297.00" departLane="-E19_0" departPos="16.60" departSpeed="0.00" departDelay="125.57" arrival="661.00" arrivalLane="133487534_0" arrivalPos="583.29" arrivalSpeed="13.81" duration="364.00" routeLength="4330.00" waitingTime="4.00" waitingCount="1" stopTime="2.00" timeLoss="40.40" rerouteNo="0" devices="tripinfo_Trailer_BTJ_Port.1 emissions_Trailer_BTJ_Port.1 ssm_Trailer_BTJ_Port.1" vType="Trailer" speedFactor="1.00" vaporized="">
        <emissions CO_abs="6287.14" CO2_abs="5218024.04" HC_abs="157.77" PMx_abs="123.61" NOx_abs="33662.61" fuel_abs="1641228.24" electricity_abs="0.00"/>
    </tripinfo>
    <tripinfo id="Trailer_BTJ_N1_R2.0" depart="7.00" departLane="-E19_0" departPos="16.60" departSpeed="0.00" departDelay="7.00" arrival="797.00" arrivalLane="955410838#0_0" arrivalPos="450.22" arrivalSpeed="13.61" duration="790.00" routeLength="9913.05" waitingTime="0.00" waitingCount="0" stopTime="0.00" timeLoss="35.98" rerouteNo="0" devices="tripinfo_Trailer_BTJ_N1_R2.0 emissions_Trailer_BTJ_N1_R2.0 ssm_Trailer_BTJ_N1_R2.0" vType="Trailer" speedFactor="0.97" vaporized="">
        <emissions CO_abs="12634.59" CO2_abs="10382532.24" HC_abs="317.35" PMx_abs="245.40" NOx_abs="67197.73" fuel_abs="3265513.22" electricity_abs="0.00"/>
    </tripinfo>
    <tripinfo id="Trailer_BTJ_N1_R1.0" depart="0.00" departLane="-E19_0" departPos="16.60" departSpeed="0.00" departDelay="0.00" arrival="820.00" arrivalLane="653007172#4_0" arrivalPos="2834.46" arrivalSpeed="13.43" duration="820.00" routeLength="10444.63" waitingTime="0.00" waitingCount="0" stopTime="0.00" timeLoss="37.47" rerouteNo="0" devices="tripinfo_Trailer_BTJ_N1_R1.0 emissions_Trailer_BTJ_N1_R1.0 ssm_Trailer_BTJ_N1_R1.0" vType="Trailer" speedFactor="1.03" vaporized="">
        <emissions CO_abs="13177.96" CO2_abs="10855316.29" HC_abs="331.32" PMx_abs="255.18" NOx_abs="70186.11" fuel_abs="3414206.48" electricity_abs="0.00"/>
    </tripinfo>
    <tripinfo id="Truck_BTJ_N1_R2.0" depart="29.00" departLane="-E19_0" departPos="7.20" departSpeed="0.00" departDelay="29.00" arrival="826.00" arrivalLane="955410838#0_0" arrivalPos="450.22" arrivalSpeed="13.60" duration="797.00" routeLength="9922.45" waitingTime="0.00" waitingCount="0" stopTime="0.00" timeLoss="37.30" rerouteNo="0" devices="tripinfo_Truck_BTJ_N1_R2.0 emissions_Truck_BTJ_N1_R2.0 ssm_Truck_BTJ_N1_R2.0" vType="Truck" speedFactor="0.94" vaporized="">
        <emissions CO_abs="13189.87" CO2_abs="10797208.89" HC_abs="331.06" PMx_abs="256.36" NOx_abs="69984.38" fuel_abs="3395924.25" electricity_abs="0.00"/>
    </tripinfo>
    <tripinfo id="Car_BTJ_N1_R2.0" depart="46.00" departLane="-E19_0" departPos="5.10" departSpeed="0.00" departDelay="46.00" arrival="841.00" arrivalLane="955410838#0_0" arrivalPos="450.22" arrivalSpeed="12.89" duration="795.00" routeLength="9924.55" waitingTime="0.00" waitingCount="0" stopTime="0.00" timeLoss="57.59" rerouteNo="0" devices="tripinfo_Car_BTJ_N1_R2.0 emissions_Car_BTJ_N1_R2.0 ssm_Car_BTJ_N1_R2.0" vType="Car" speedFactor="1.15" vaporized="">
        <emissions CO_abs="15363.28" CO2_abs="1873993.40" HC_abs="108.27" PMx_abs="23.39" NOx_abs="680.63" fuel_abs="597721.28" electricity_abs="0.00"/>
    </tripinfo>
    <tripinfo id="Truck_BTJ_N1_R1.0" depart="25.00" departLane="-E19_0" departPos="7.20" departSpeed="0.00" departDelay="25.00" arrival="855.00" arrivalLane="653007172#4_0" arrivalPos="2834.46" arrivalSpeed="13.47" duration="830.00" routeLength="10454.03" waitingTime="0.00" waitingCount="0" stopTime="0.00" timeLoss="37.81" rerouteNo="0" devices="tripinfo_Truck_BTJ_N1_R1.0 emissions_Truck_BTJ_N1_R1.0 ssm_Truck_BTJ_N1_R1.0" vType="Truck" speedFactor="0.96" vaporized="">
        <emissions CO_abs="13750.01" CO2_abs="11319572.46" HC_abs="345.50" PMx_abs="266.89" NOx_abs="73211.17" fuel_abs="3560235.65" electricity_abs="0.00"/>
    </tripinfo>
    <tripinfo id="Bus_BTJ_N1_R2.0" depart="59.00" departLane="-E19_0" departPos="12.10" departSpeed="0.00" departDelay="59.00" arrival="855.00" arrivalLane="955410838#0_0" arrivalPos="450.22" arrivalSpeed="13.31" duration="796.00" routeLength="9917.55" waitingTime="0.00" waitingCount="0" stopTime="0.00" timeLoss="47.83" rerouteNo="0" devices="tripinfo_Bus_BTJ_N1_R2.0 emissions_Bus_BTJ_N1_R2.0 ssm_Bus_BTJ_N1_R2.0" vType="Bus" speedFactor="1.00" vaporized="">
        <emissions CO_abs="16523.09" CO2_abs="10143573.20" HC_abs="3810.80" PMx_abs="1786.79" NOx_abs="78883.69" fuel_abs="3210176.64" electricity_abs="0.00"/>
    </tripinfo>
    <tripinfo id="Car_BTJ_N1_R1.0" depart="43.00" departLane="-E19_0" departPos="5.10" departSpeed="0.00" departDelay="43.00" arrival="877.00" arrivalLane="653007172#4_0" arrivalPos="2834.46" arrivalSpeed="13.72" duration="834.00" routeLength="10456.13" waitingTime="0.00" waitingCount="0" stopTime="0.00" timeLoss="59.95" rerouteNo="0" devices="tripinfo_Car_BTJ_N1_R1.0 emissions_Car_BTJ_N1_R1.0 ssm_Car_BTJ_N1_R1.0" vType="Car" speedFactor="1.18" vaporized="">
        <emissions CO_abs="16113.99" CO2_abs="1969771.93" HC_abs="113.57" PMx_abs="24.50" NOx_abs="715.52" fuel_abs="628270.43" electricity_abs="0.00"/>
    </tripinfo>
    <tripinfo id="Trailer_N1_BTJ_R1.0" depart="0.00" departLane="653007179#0_0" departPos="16.60" departSpeed="0.00" departDelay="0.00" arrival="885.00" arrivalLane="E19_0" arrivalPos="61.50" arrivalSpeed="12.08" duration="885.00" routeLength="10824.63" waitingTime="5.00" waitingCount="1" stopTime="0.00" timeLoss="54.88" rerouteNo="0" devices="tripinfo_Trailer_N1_BTJ_R1.0 emissions_Trailer_N1_BTJ_R1.0 ssm_Trailer_N1_BTJ_R1.0" vType="Trailer" speedFactor="0.94" vaporized="">
        <emissions CO_abs="14416.28" CO2_abs="11791889.94" HC_abs="361.44" PMx_abs="281.56" NOx_abs="76468.21" fuel_abs="3708797.49" electricity_abs="0.00"/>
    </tripinfo>
    <tripinfo id="Truck_N1_BTJ_R1.0" depart="17.00" departLane="653007179#0_0" departPos="7.20" departSpeed="0.00" departDelay="17.00" arrival="888.00" arrivalLane="E19_0" arrivalPos="61.50" arrivalSpeed="13.15" duration="871.00" routeLength="10828.87" waitingTime="0.00" waitingCount="0" stopTime="0.00" timeLoss="50.41" rerouteNo="0" devices="tripinfo_Truck_N1_BTJ_R1.0 emissions_Truck_N1_BTJ_R1.0 ssm_Truck_N1_BTJ_R1.0" vType="Truck" speedFactor="0.99" vaporized="">
        <emissions CO_abs="14647.18" CO2_abs="12100864.82" HC_abs="368.13" PMx_abs="284.78" NOx_abs="78165.80" fuel_abs="3805996.35" electricity_abs="0.00"/>
    </tripinfo>
    <tripinfo id="Bus_BTJ_N1_R1.0" depart="53.00" departLane="-E19_0" departPos="12.10" departSpeed="0.00" departDelay="53.00" arrival="889.00" arrivalLane="653007172#4_0" arrivalPos="2834.46" arrivalSpeed="13.77" duration="836.00" routeLength="10449.13" waitingTime="0.00" waitingCount="0" stopTime="0.00" timeLoss="50.57" rerouteNo="0" devices="tripinfo_Bus_BTJ_N1_R1.0 emissions_Bus_BTJ_N1_R1.0 ssm_Bus_BTJ_N1_R1.0" vType="Bus" speedFactor="1.00" vaporized="">
        <emissions CO_abs="17486.14" CO2_abs="10755125.58" HC_abs="4038.07" PMx_abs="1891.80" NOx_abs="83576.16" fuel_abs="3403726.70" electricity_abs="0.00"/>
    </tripinfo>
    <tripinfo id="Truck_BTJ_Port.2" depart="549.00" departLane="-E19_0" departPos="7.20" departSpeed="0.00" departDelay="206.14" arrival="899.00" arrivalLane="133487534_0" arrivalPos="583.29" arrivalSpeed="13.40" duration="350.00" routeLength="4339.40" waitingTime="0.00" waitingCount="0" stopTime="2.00" timeLoss="28.05" rerouteNo="0" devices="tripinfo_Truck_BTJ_Port.2 emissions_Truck_BTJ_Port.2 ssm_Truck_BTJ_Port.2" vType="Truck" speedFactor="1.03" vaporized="">
        <emissions CO_abs="6229.62" CO2_abs="5222268.05" HC_abs="156.85" PMx_abs="121.39" NOx_abs="33553.75" fuel_abs="1642558.90" electricity_abs="0.00"/>
    </tripinfo>
    <tripinfo id="Car_N1_BTJ_R1.0" depart="29.00" departLane="653007179#0_0" departPos="5.10" departSpeed="0.00" departDelay="29.00" arrival="901.00" arrivalLane="E19_0" arrivalPos="61.50" arrivalSpeed="13.30" duration="872.00" routeLength="10836.13" waitingTime="0.00" waitingCount="0" stopTime="0.00" timeLoss="67.62" rerouteNo="0" devices="tripinfo_Car_N1_BTJ_R1.0 emissions_Car_N1_BTJ_R1.0 ssm_Car_N1_BTJ_R1.0" vType="Car" speedFactor="1.18" vaporized="">
        <emissions CO_abs="17532.02" CO2_abs="2094975.65" HC_abs="122.67" PMx_abs="26.16" NOx_abs="761.93" fuel_abs="668205.00" electricity_abs="0.00"/>
    </tripinfo>
    <tripinfo id="Trailer_BTJ_Port.2" depart="544.00" departLane="-E19_0" departPos="16.60" departSpeed="0.00" departDelay="201.14" arrival="908.00" arrivalLane="133487534_0" arrivalPos="583.29" arrivalSpeed="13.59" duration="364.00" routeLength="4324.84" waitingTime="5.00" waitingCount="1" stopTime="2.00" timeLoss="42.13" rerouteNo="0" devices="tripinfo_Trailer_BTJ_Port.2 emissions_Trailer_BTJ_Port.2 ssm_Trailer_BTJ_Port.2" vType="Trailer" speedFactor="1.16" vaporized="">
        <emissions CO_abs="6265.61" CO2_abs="5174411.49" HC_abs="157.15" PMx_abs="123.03" NOx_abs="33441.47" fuel_abs="1627496.74" electricity_abs="0.00"/>
    </tripinfo>
    <tripinfo id="Truck_BTJ_N1_R1.1" depart="77.00" departLane="-E19_0" departPos="7.20" departSpeed="0.00" departDelay="67.78" arrival="926.00" arrivalLane="653007172#4_0" arrivalPos="2834.46" arrivalSpeed="13.79" duration="849.00" routeLength="10454.03" waitingTime="0.00" waitingCount="0" stopTime="0.00" timeLoss="54.28" rerouteNo="0" devices="tripinfo_Truck_BTJ_N1_R1.1 emissions_Truck_BTJ_N1_R1.1 ssm_Truck_BTJ_N1_R1.1" vType="Truck" speedFactor="0.95" vaporized="">
        <emissions CO_abs="13899.48" CO2_abs="11353597.27" HC_abs="348.61" PMx_abs="270.71" NOx_abs="73656.08" fuel_abs="3570921.39" electricity_abs="0.00"/>
    </tripinfo>
    <tripinfo id="Bus_BTJ_N1_R1.1" depart="83.00" departLane="-E19_0" departPos="12.10" departSpeed="0.00" departDelay="66.40" arrival="929.00" arrivalLane="653007172#4_0" arrivalPos="2834.46" arrivalSpeed="13.51" duration="846.00" routeLength="10449.13" waitingTime="0.00" waitingCount="0" stopTime="0.00" timeLoss="60.44" rerouteNo="0" devices="tripinfo_Bus_BTJ_N1_R1.1 emissions_Bus_BTJ_N1_R1.1 ssm_Bus_BTJ_N1_R1.1" vType="Bus" speedFactor="1.00" vaporized="">
        <emissions CO_abs="17229.60" CO2_abs="10428915.52" HC_abs="4044.81" PMx_abs="1863.83" NOx_abs="81430.40" fuel_abs="3300494.78" electricity_abs="0.00"/>
    </tripinfo>
    <tripinfo id="Truck_BTJ_N1_R1.2" depart="88.00" departLane="-E19_0" departPos="7.20" departSpeed="0.00" departDelay="69.56" arrival="931.00" arrivalLane="653007172#4_0" arrivalPos="2834.46" arrivalSpeed="13.74" duration="843.00" routeLength="10454.03" waitingTime="0.00" waitingCount="0" stopTime="0.00" timeLoss="55.89" rerouteNo="0" devices="tripinfo_Truck_BTJ_N1_R1.2 emissions_Truck_BTJ_N1_R1.2 ssm_Truck_BTJ_N1_R1.2" vType="Truck" speedFactor="0.99" vaporized="">
        <emissions CO_abs="13762.51" CO2_abs="11329518.83" HC_abs="345.73" PMx_abs="267.49" NOx_abs="73279.98" fuel_abs="3563371.94" electricity_abs="0.00"/>
    </tripinfo>
    <tripinfo id="Bus_N1_BTJ_R1.0" depart="39.00" departLane="653007179#0_0" departPos="12.10" departSpeed="0.00" departDelay="39.00" arrival="932.00" arrivalLane="E19_0" arrivalPos="61.50" arrivalSpeed="12.12" duration="893.00" routeLength="10829.13" waitingTime="0.00" waitingCount="0" stopTime="0.00" timeLoss="74.50" rerouteNo="0" devices="tripinfo_Bus_N1_BTJ_R1.0 emissions_Bus_N1_BTJ_R1.0 ssm_Bus_N1_BTJ_R1.0" vType="Bus" speedFactor="1.00" vaporized="">
        <emissions CO_abs="18474.54" CO2_abs="11566547.27" HC_abs="4128.67" PMx_abs="1995.27" NOx_abs="89483.26" fuel_abs="3660469.35" electricity_abs="0.00"/>
    </tripinfo>
    <tripinfo id="Trailer_BTJ_N1_R3.0" depart="13.00" departLane="-E19_0" departPos="16.60" departSpeed="0.00" departDelay="13.00" arrival="936.00" arrivalLane="434733273_0" arrivalPos="3019.52" arrivalSpeed="13.45" duration="923.00" routeLength="11773.06" waitingTime="0.00" waitingCount="0" stopTime="0.00" timeLoss="41.14" rerouteNo="0" devices="tripinfo_Trailer_BTJ_N1_R3.0 emissions_Trailer_BTJ_N1_R3.0 ssm_Trailer_BTJ_N1_R3.0" vType="Trailer" speedFactor="1.01" vaporized="">
        <emissions CO_abs="14944.82" CO2_abs="12286570.93" HC_abs="375.74" PMx_abs="288.95" NOx_abs="79493.87" fuel_abs="3864343.38" electricity_abs="0.00"/>
    </tripinfo>
    <tripinfo id="Trailer_N1_South_R1.0" depart="12.00" departLane="653007179#0_0" departPos="16.60" departSpeed="0.00" departDelay="12.00" arrival="944.00" arrivalLane="955410878.656.46_0" arrivalPos="292.09" arrivalSpeed="13.80" duration="932.00" routeLength="11541.60" waitingTime="0.00" waitingCount="0" stopTime="0.00" timeLoss="47.39" rerouteNo="0" devices="tripinfo_Trailer_N1_South_R1.0 emissions_Trailer_N1_South_R1.0 ssm_Trailer_N1_South_R1.0" vType="Trailer" speedFactor="1.01" vaporized="">
        <emissions CO_abs="14615.60" CO2_abs="11941468.85" HC_abs="366.74" PMx_abs="284.06" NOx_abs="77456.61" fuel_abs="3755805.69" electricity_abs="0.00"/>
    </tripinfo>
    <tripinfo id="Trailer_N1_BTJ_R3.0" depart="0.00" departLane="244115103_0" departPos="16.60" departSpeed="0.00" departDelay="0.00" arrival="959.00" arrivalLane="E19_0" arrivalPos="61.50" arrivalSpeed="11.90" duration="959.00" routeLength="12066.21" waitingTime="0.00" waitingCount="0" stopTime="0.00" timeLoss="45.23" rerouteNo="0" devices="tripinfo_Trailer_N1_BTJ_R3.0 emissions_Trailer_N1_BTJ_R3.0 ssm_Trailer_N1_BTJ_R3.0" vType="Trailer" speedFactor="0.97" vaporized="">
        <emissions CO_abs="15537.60" CO2_abs="12818175.06" HC_abs="390.53" PMx_abs="301.68" NOx_abs="82839.20" fuel_abs="4031589.72" electricity_abs="0.00"/>
    </tripinfo>
    <tripinfo id="Car_BTJ_N1_R1.1" depart="92.00" departLane="-E19_0" departPos="5.10" departSpeed="0.00" departDelay="72.26" arrival="965.00" arrivalLane="653007172#4_0" arrivalPos="2834.46" arrivalSpeed="13.35" duration="873.00" routeLength="10456.13" waitingTime="0.00" waitingCount="0" stopTime="0.00" timeLoss="65.31" rerouteNo="0" devices="tripinfo_Car_BTJ_N1_R1.1 emissions_Car_BTJ_N1_R1.1 ssm_Car_BTJ_N1_R1.1" vType="Car" speedFactor="0.88" vaporized="">
        <emissions CO_abs="18922.58" CO2_abs="1993944.20" HC_abs="128.18" PMx_abs="25.75" NOx_abs="734.09" fuel_abs="635980.85" electricity_abs="0.00"/>
    </tripinfo>
    <tripinfo id="Truck_BTJ_N1_R1.3" depart="96.00" departLane="-E19_0" departPos="7.20" departSpeed="0.00" departDelay="68.34" arrival="965.00" arrivalLane="653007172#4_1" arrivalPos="2834.46" arrivalSpeed="13.36" duration="869.00" routeLength="10454.03" waitingTime="0.00" waitingCount="0" stopTime="0.00" timeLoss="83.75" rerouteNo="0" devices="tripinfo_Truck_BTJ_N1_R1.3 emissions_Truck_BTJ_N1_R1.3 ssm_Truck_BTJ_N1_R1.3" vType="Truck" speedFactor="1.01" vaporized="">
        <emissions CO_abs="14279.28" CO2_abs="12028546.16" HC_abs="359.62" PMx_abs="278.94" NOx_abs="77153.65" fuel_abs="3783375.68" electricity_abs="0.00"/>
    </tripinfo>
    <tripinfo id="Truck_BTJ_N1_R3.0" depart="34.00" departLane="-E19_0" departPos="7.20" departSpeed="0.00" departDelay="34.00" arrival="966.00" arrivalLane="434733273_0" arrivalPos="3019.52" arrivalSpeed="13.79" duration="932.00" routeLength="11782.46" waitingTime="0.00" waitingCount="0" stopTime="0.00" timeLoss="43.91" rerouteNo="0" devices="tripinfo_Truck_BTJ_N1_R3.0 emissions_Truck_BTJ_N1_R3.0 ssm_Truck_BTJ_N1_R3.0" vType="Truck" speedFactor="0.97" vaporized="">
        <emissions CO_abs="15328.21" CO2_abs="12607586.97" HC_abs="385.20" PMx_abs="297.18" NOx_abs="81565.21" fuel_abs="3965329.82" electricity_abs="0.00"/>
    </tripinfo>
    <tripinfo id="Bus_BTJ_N1_R1.2" depart="101.00" departLane="-E19_0" departPos="12.10" departSpeed="0.00" departDelay="67.79" arrival="967.00" arrivalLane="653007172#4_0" arrivalPos="2834.46" arrivalSpeed="13.62" duration="866.00" routeLength="10449.13" waitingTime="0.00" waitingCount="0" stopTime="0.00" timeLoss="80.41" rerouteNo="0" devices="tripinfo_Bus_BTJ_N1_R1.2 emissions_Bus_BTJ_N1_R1.2 ssm_Bus_BTJ_N1_R1.2" vType="Bus" speedFactor="1.00" vaporized="">
        <emissions CO_abs="17833.05" CO2_abs="10927308.92" HC_abs="4082.16" PMx_abs="1925.93" NOx_abs="85074.07" fuel_abs="3458178.80" electricity_abs="0.00"/>
    </tripinfo>
    <tripinfo id="Truck_N1_South_R1.0" depart="25.00" departLane="653007179#0_0" departPos="7.20" departSpeed="0.00" departDelay="25.00" arrival="968.00" arrivalLane="955410878.656.46_0" arrivalPos="292.09" arrivalSpeed="13.36" duration="943.00" routeLength="11551.00" waitingTime="0.00" waitingCount="0" stopTime="0.00" timeLoss="47.92" rerouteNo="0" devices="tripinfo_Truck_N1_South_R1.0 emissions_Truck_N1_South_R1.0 ssm_Truck_N1_South_R1.0" vType="Truck" speedFactor="0.96" vaporized="">
        <emissions CO_abs="15298.33" CO2_abs="12580560.24" HC_abs="384.06" PMx_abs="298.04" NOx_abs="81411.15" fuel_abs="3956861.44" electricity_abs="0.00"/>
    </tripinfo>
    <tripinfo id="Truck_N1_BTJ_R3.0" depart="18.00" departLane="244115103_0" departPos="7.20" departSpeed="0.00" departDelay="18.00" arrival="983.00" arrivalLane="E19_0" arrivalPos="61.50" arrivalSpeed="13.00" duration="965.00" routeLength="12075.61" waitingTime="0.00" waitingCount="0" stopTime="0.00" timeLoss="45.77" rerouteNo="0" devices="tripinfo_Truck_N1_BTJ_R3.0 emissions_Truck_N1_BTJ_R3.0 ssm_Truck_N1_BTJ_R3.0" vType="Truck" speedFactor="0.94" vaporized="">
        <emissions CO_abs="16003.20" CO2_abs="13197938.52" HC_abs="402.18" PMx_abs="310.81" NOx_abs="85304.97" fuel_abs="4151033.86" electricity_abs="0.00"/>
    </tripinfo>
    <tripinfo id="Car_N1_BTJ_R3.0" depart="32.00" departLane="244115103_0" departPos="5.10" departSpeed="0.00" departDelay="32.00" arrival="991.00" arrivalLane="E19_0" arrivalPos="61.50" arrivalSpeed="13.56" duration="959.00" routeLength="12077.71" waitingTime="0.00" waitingCount="0" stopTime="0.00" timeLoss="60.54" rerouteNo="0" devices="tripinfo_Car_N1_BTJ_R3.0 emissions_Car_N1_BTJ_R3.0 ssm_Car_N1_BTJ_R3.0" vType="Car" speedFactor="1.10" vaporized="">
        <emissions CO_abs="18991.10" CO2_abs="2273579.23" HC_abs="133.39" PMx_abs="29.10" NOx_abs="832.24" fuel_abs="725170.86" electricity_abs="0.00"/>
    </tripinfo>
    <tripinfo id="Car_BTJ_N1_R3.0" depart="49.00" departLane="-E19_0" departPos="5.10" departSpeed="0.00" departDelay="49.00" arrival="994.00" arrivalLane="434733273_0" arrivalPos="3019.52" arrivalSpeed="13.39" duration="945.00" routeLength="11790.09" waitingTime="0.00" waitingCount="0" stopTime="0.00" timeLoss="61.83" rerouteNo="0" devices="tripinfo_Car_BTJ_N1_R3.0 emissions_Car_BTJ_N1_R3.0 ssm_Car_BTJ_N1_R3.0" vType="Car" speedFactor="1.01" vaporized="">
        <emissions CO_abs="17380.25" CO2_abs="2196585.37" HC_abs="123.75" PMx_abs="26.23" NOx_abs="788.96" fuel_abs="700614.92" electricity_abs="0.00"/>
    </tripinfo>
    <tripinfo id="Car_N1_South_R1.0" depart="35.00" departLane="653007179#0_0" departPos="5.10" departSpeed="0.00" departDelay="35.00" arrival="999.00" arrivalLane="955410878.656.46_0" arrivalPos="292.09" arrivalSpeed="12.91" duration="964.00" routeLength="11553.10" waitingTime="0.00" waitingCount="0" stopTime="0.00" timeLoss="68.91" rerouteNo="0" devices="tripinfo_Car_N1_South_R1.0 emissions_Car_N1_South_R1.0 ssm_Car_N1_South_R1.0" vType="Car" speedFactor="0.96" vaporized="">
        <emissions CO_abs="20711.89" CO2_abs="2202323.38" HC_abs="139.96" PMx_abs="28.22" NOx_abs="808.88" fuel_abs="702444.70" electricity_abs="0.00"/>
    </tripinfo>
    <tripinfo id="Bus_BTJ_N1_R3.0" depart="65.00" departLane="-E19_0" departPos="12.10" departSpeed="0.00" departDelay="65.00" arrival="1001.00" arrivalLane="434733273_0" arrivalPos="3019.52" arrivalSpeed="13.47" duration="936.00" routeLength="11783.09" waitingTime="0.00" waitingCount="0" stopTime="0.00" timeLoss="53.42" rerouteNo="0" devices="tripinfo_Bus_BTJ_N1_R3.0 emissions_Bus_BTJ_N1_R3.0 ssm_Bus_BTJ_N1_R3.0" vType="Bus" speedFactor="1.00" vaporized="">
        <emissions CO_abs="19313.36" CO2_abs="11825194.11" HC_abs="4489.44" PMx_abs="2089.95" NOx_abs="92005.44" fuel_abs="3742384.72" electricity_abs="0.00"/>
    </tripinfo>
    <tripinfo id="Bus_N1_South_R1.0" depart="51.00" departLane="653007179#0_0" departPos="12.10" departSpeed="0.00" departDelay="51.00" arrival="1001.00" arrivalLane="955410878.656.46_0" arrivalPos="292.09" arrivalSpeed="13.38" duration="950.00" routeLength="11546.10" waitingTime="0.00" waitingCount="0" stopTime="0.00" timeLoss="64.68" rerouteNo="0" devices="tripinfo_Bus_N1_South_R1.0 emissions_Bus_N1_South_R1.0 ssm_Bus_N1_South_R1.0" vType="Bus" speedFactor="1.00" vaporized="">
        <emissions CO_abs="19315.22" CO2_abs="11781337.48" HC_abs="4460.09" PMx_abs="2087.05" NOx_abs="91827.43" fuel_abs="3728469.45" electricity_abs="0.00"/>
    </tripinfo>
    <tripinfo id="Bus_N1_BTJ_R3.0" depart="42.00" departLane="244115103_0" departPos="12.10" departSpeed="0.00" departDelay="42.00" arrival="1006.00" arrivalLane="E19_0" arrivalPos="61.50" arrivalSpeed="12.66" duration="964.00" routeLength="12070.71" waitingTime="0.00" waitingCount="0" stopTime="0.00" timeLoss="56.57" rerouteNo="0" devices="tripinfo_Bus_N1_BTJ_R3.0 emissions_Bus_N1_BTJ_R3.0 ssm_Bus_N1_BTJ_R3.0" vType="Bus" speedFactor="1.00" vaporized="">
        <emissions CO_abs="20197.63" CO2_abs="12525570.32" HC_abs="4605.95" PMx_abs="2184.12" NOx_abs="97119.06" fuel_abs="3964010.50" electricity_abs="0.00"/>
    </tripinfo>
    <tripinfo id="Trailer_N1_South_R3.0" depart="13.00" departLane="244115103_0" departPos="16.60" departSpeed="0.00" departDelay="13.00" arrival="1024.00" arrivalLane="955410878.656.46_0" arrivalPos="292.09" arrivalSpeed="13.70" duration="1011.00" routeLength="12782.39" waitingTime="0.00" waitingCount="0" stopTime="0.00" timeLoss="39.52" rerouteNo="0" devices="tripinfo_Trailer_N1_South_R3.0 emissions_Trailer_N1_South_R3.0 ssm_Trailer_N1_South_R3.0" vType="Trailer" speedFactor="1.02" vaporized="">
        <emissions CO_abs="16210.05" CO2_abs="13223565.41" HC_abs="406.84" PMx_abs="314.32" NOx_abs="85815.51" fuel_abs="4159022.71" electricity_abs="0.00"/>
    </tripinfo>